25
 energy: -60.309331691154 gnorm: 0.009333847074 xtb: 6.5.0 (97a52f5)
N           -2.13267482877240        6.23827380827500        2.18691433136906
C            1.19293453553667       -2.08271288571596       -2.61216811077545
C           -2.16403809182357        3.88759988146525        3.41550625060506
C           -2.69815502928486        3.48901201105129        4.69172698209456
C            0.12676041917265       -1.29572380769468        0.41813003966270
C            4.66473217676628       -2.75709585075343       -1.93782090304225
C            0.33295066880175       -3.94269073083532       -3.88782745838459
C           -0.62965079651398       -4.38376829813315       -4.53171128667335
O            0.31425013253938       -2.43151217513418        0.09503946830191
N           -2.48743681145050        6.50698806017483        3.34954823452532
C            2.24740880719629       -1.53810155341909       -2.03629015664191
C           -1.63812809545037        2.87374492207350        2.61972203692796
C           -2.18149771927971        5.17704752829701        3.08052355345482
C           -0.63153366438368        0.82207578175564        1.39444910638896
N           -1.18541470087293       -1.16861237388058       -2.68990370300988
C            3.45424497511471       -2.05839660556859       -1.95085351103334
C           -1.13569489811552        1.90660552246295        2.07040421980819
C            3.60591812815277       -3.43239422313239       -2.59694728040289
S           -1.28282864058564       -0.77826308717055        1.54224247658095
C           -2.84845430052320        3.27915513518263        5.86795485249951
C            2.57631947318178       -3.97962445345166       -3.18439963698322
C           -0.12077155756559       -1.59579058484978       -2.67361520592474
N            0.81019107322698       -0.18432147355542        0.06898023771071
N            1.39239648668661       -3.45649131115237       -3.27011275035997
N            0.41817284624347        0.90499616670452        0.57050715530031
