      -----------------------------------------------------------      
     |                   =====================                   |     
     |                           x T B                           |     
     |                   =====================                   |     
     |                         S. Grimme                         |     
     |          Mulliken Center for Theoretical Chemistry        |     
     |                    University of Bonn                     |     
      -----------------------------------------------------------      

   * xtb version 6.4.1 (bd6e46d) compiled by 'conda@4901f00b25ba' on 2021-06-10

   xtb is free software: you can redistribute it and/or modify it under
   the terms of the GNU Lesser General Public License as published by
   the Free Software Foundation, either version 3 of the License, or
   (at your option) any later version.
   
   xtb is distributed in the hope that it will be useful,
   but WITHOUT ANY WARRANTY; without even the implied warranty of
   MERCHANTABILITY or FITNESS FOR A PARTICULAR PURPOSE.  See the
   GNU Lesser General Public License for more details.
   
   Cite this work as:
   * C. Bannwarth, E. Caldeweyher, S. Ehlert, A. Hansen, P. Pracht,
     J. Seibert, S. Spicher, S. Grimme, WIREs Comput. Mol. Sci., 2020, 11,
     e01493. DOI: 10.1002/wcms.1493
   
   for GFN2-xTB:
   * C. Bannwarth, S. Ehlert and S. Grimme., J. Chem. Theory Comput., 2019,
     15, 1652-1671. DOI: 10.1021/acs.jctc.8b01176
   for GFN1-xTB:
   * S. Grimme, C. Bannwarth, P. Shushkov, J. Chem. Theory Comput., 2017,
     13, 1989-2009. DOI: 10.1021/acs.jctc.7b00118
   for GFN0-xTB:
   * P. Pracht, E. Caldeweyher, S. Ehlert, S. Grimme, ChemRxiv, 2019, preprint.
     DOI: 10.26434/chemrxiv.8326202.v1
   for GFN-FF:
   * S. Spicher and S. Grimme, Angew. Chem. Int. Ed., 2020, 59, 15665-15673.
     DOI: 10.1002/anie.202004239
   
   for DFT-D4:
   * E. Caldeweyher, C. Bannwarth and S. Grimme, J. Chem. Phys., 2017,
     147, 034112. DOI: 10.1063/1.4993215
   * E. Caldeweyher, S. Ehlert, A. Hansen, H. Neugebauer, S. Spicher,
     C. Bannwarth and S. Grimme, J. Chem. Phys., 2019, 150, 154122.
     DOI: 10.1063/1.5090222
   * E. Caldeweyher, J.-M. Mewes, S. Ehlert and S. Grimme, Phys. Chem. Chem. Phys.
     2020, 22, 8499-8512. DOI: 10.1039/D0CP00502A
   
   for sTDA-xTB:
   * S. Grimme and C. Bannwarth, J. Chem. Phys., 2016, 145, 054103.
     DOI: 10.1063/1.4959605
   
   in the mass-spec context:
   * V. Asgeirsson, C. Bauer and S. Grimme, Chem. Sci., 2017, 8, 4879.
     DOI: 10.1039/c7sc00601b
   * J. Koopman and S. Grimme, ACS Omega 2019, 4, 12, 15120-15133.
     DOI: 10.1021/acsomega.9b02011
   
   for metadynamics refer to:
   * S. Grimme, J. Chem. Theory Comput., 2019, 155, 2847-2862
     DOI: 10.1021/acs.jctc.9b00143
   
   for SPH calculations refer to:
   * S. Spicher and S. Grimme, J. Chem. Theory Comput., 2021, 17, 1701-1714
     DOI: 10.1021/acs.jctc.0c01306
   
   with help from (in alphabetical order)
   P. Atkinson, C. Bannwarth, F. Bohle, G. Brandenburg, E. Caldeweyher
   M. Checinski, S. Dohm, S. Ehlert, S. Ehrlich, I. Gerasimov, J. Koopman
   C. Lavigne, S. Lehtola, F. März, M. Müller, F. Musil, H. Neugebauer
   J. Pisarek, C. Plett, P. Pracht, J. Seibert, P. Shushkov, S. Spicher
   M. Stahn, M. Steiner, T. Strunk, J. Stückrath, T. Rose, and J. Unsleber
   
 * started run on 2022/05/24 at 17:04:11.676     

           -------------------------------------------------
          |                Calculation Setup                |
           -------------------------------------------------

          program call               : xtb tmpcoord --gfn2 --opt
          hostname                   : qiangbo-mol
          coordinate file            : tmpcoord
          omp threads                :                     1
          number of atoms            :                    21
          number of electrons        :                    87
          charge                     :                     0
          spin                       :                   0.5
          first test random number   :      0.67625437529406

   ID    Z sym.   atoms
    1    6 c      1-3, 5-7, 9-15, 17-19
    2    7 n      4, 16
    3   16 s      8, 20
    4    1 h      21

           -------------------------------------------------
          |                 G F N 2 - x T B                 |
           -------------------------------------------------

        Reference                      10.1021/acs.jctc.8b01176
      * Hamiltonian:
        H0-scaling (s, p, d)           1.850000    2.230000    2.230000
        zeta-weighting                 0.500000
      * Dispersion:
        s8                             2.700000
        a1                             0.520000
        a2                             5.000000
        s9                             5.000000
      * Repulsion:
        kExp                           1.500000    1.000000
        rExp                           1.000000
      * Coulomb:
        alpha                          2.000000
        third order                    shell-resolved
        anisotropic                    true
        a3                             3.000000
        a5                             4.000000
        cn-shift                       1.200000
        cn-exp                         4.000000
        max-rad                        5.000000


          ...................................................
          :                      SETUP                      :
          :.................................................:
          :  # basis functions                  93          :
          :  # atomic orbitals                  91          :
          :  # shells                           43          :
          :  # electrons                        87          :
          :  max. iterations                   250          :
          :  Hamiltonian                  GFN2-xTB          :
          :  restarted?                      false          :
          :  GBSA solvation                  false          :
          :  PC potential                    false          :
          :  electronic temp.          300.0000000     K    :
          :  accuracy                    1.0000000          :
          :  -> integral cutoff          0.2500000E+02      :
          :  -> integral neglect         0.1000000E-07      :
          :  -> SCF convergence          0.1000000E-05 Eh   :
          :  -> wf. convergence          0.1000000E-03 e    :
          :  Broyden damping             0.4000000          :
          ...................................................

 iter      E             dE          RMSdq      gap      omega  full diag
   1    -45.2969825 -0.452970E+02  0.106E+01    0.45       0.0  T
   2    -30.9606548  0.143363E+02  0.166E+01    0.35       1.0  T
   3    -34.6318194 -0.367116E+01  0.126E+01    0.22       1.0  T
   4    -42.7496420 -0.811782E+01  0.874E+00    0.04       1.0  T
   5    -41.8514085  0.898234E+00  0.938E+00    0.10       1.0  T
   6    -44.6991867 -0.284778E+01  0.670E+00    0.43       1.0  T
   7    -45.0030403 -0.303854E+00  0.553E+00    0.11       1.0  T
   8    -45.8932059 -0.890166E+00  0.445E+00    0.16       1.0  T
   9    -46.0748670 -0.181661E+00  0.337E+00    0.21       1.0  T
  10    -45.8707246  0.204142E+00  0.377E+00    0.10       1.0  T
  11    -46.0357320 -0.165007E+00  0.352E+00    0.22       1.0  T
  12    -46.1322949 -0.965629E-01  0.275E+00    0.23       1.0  T
  13    -46.0402150  0.920799E-01  0.243E+00    0.07       1.0  T
  14    -46.0388236  0.139140E-02  0.222E+00    0.05       1.0  T
  15    -46.1448007 -0.105977E+00  0.185E+00    0.14       1.0  T
  16    -46.0106334  0.134167E+00  0.219E+00    0.07       1.0  T
  17    -46.1975575 -0.186924E+00  0.238E+00    0.05       1.0  T
  18    -46.2113334 -0.137760E-01  0.196E+00    0.06       1.0  T
  19    -46.2034812  0.785223E-02  0.155E+00    0.04       1.0  T
  20    -46.2309670 -0.274858E-01  0.716E-01    0.09       1.0  T
  21    -46.2060267  0.249403E-01  0.167E+00    0.03       1.0  T
  22    -46.2396080 -0.335813E-01  0.842E-01    0.06       1.0  T
  23    -46.2283818  0.112263E-01  0.956E-01    0.05       1.0  T
  24    -46.2466573 -0.182756E-01  0.445E-01    0.07       1.0  T
  25    -46.2504784 -0.382105E-02  0.310E-01    0.07       1.0  T
  26    -46.2502772  0.201174E-03  0.205E-01    0.08       1.0  T
  27    -46.2518605 -0.158328E-02  0.769E-02    0.08       1.0  T
  28    -46.2509694  0.891097E-03  0.156E-01    0.08       1.0  T
  29    -46.2517276 -0.758223E-03  0.894E-02    0.08       1.0  T
  30    -46.2520179 -0.290232E-03  0.259E-02    0.07       1.0  T
  31    -46.2520210 -0.312023E-05  0.220E-02    0.07       1.0  T
  32    -46.2519804  0.405917E-04  0.369E-02    0.07       1.0  T
  33    -46.2520273 -0.469372E-04  0.108E-02    0.07       2.0  T
  34    -46.2520268  0.488997E-06  0.782E-03    0.07       2.8  T
  35    -46.2520279 -0.110832E-05  0.411E-03    0.07       5.3  T
  36    -46.2520283 -0.372422E-06  0.259E-03    0.07       8.4  T
  37    -46.2520279  0.372526E-06  0.354E-03    0.07       6.2  T
  38    -46.2520284 -0.446815E-06  0.118E-03    0.07      18.5  T
  39    -46.2520284 -0.390030E-07  0.475E-04    0.07      46.0  T
  40    -46.2520284 -0.463755E-08  0.258E-04    0.07      84.7  T

   *** convergence criteria satisfied after 40 iterations ***

         #    Occupation            Energy/Eh            Energy/eV
      -------------------------------------------------------------
         1        2.0000           -0.7686271             -20.9154
       ...           ...                  ...                  ...
        38        2.0000           -0.4223735             -11.4934
        39        2.0000           -0.4191665             -11.4061
        40        2.0000           -0.4158845             -11.3168
        41        1.9999           -0.4140966             -11.2681
        42        1.7955           -0.4067092             -11.0671
        43        1.7067           -0.4062877             -11.0557
        44        1.2138           -0.4048135             -11.0155 (HOMO)
        45        0.2502           -0.4021034             -10.9418 (LUMO)
        46        0.0339           -0.4000263             -10.8853
        47                         -0.3856378             -10.4937
        48                         -0.3769758             -10.2580
        49                         -0.3736149             -10.1666
       ...                                ...                  ...
        91                          0.5840269              15.8922
      -------------------------------------------------------------
                  HL-Gap            0.0027101 Eh            0.0737 eV
             Fermi-level           -0.4042906 Eh          -11.0013 eV

 SCC (total)                   0 d,  0 h,  0 min,  0.100 sec
 SCC setup                      ...        0 min,  0.000 sec (  0.317%)
 Dispersion                     ...        0 min,  0.000 sec (  0.398%)
 classical contributions        ...        0 min,  0.000 sec (  0.300%)
 integral evaluation            ...        0 min,  0.012 sec ( 11.688%)
 iterations                     ...        0 min,  0.070 sec ( 70.019%)
 molecular gradient             ...        0 min,  0.017 sec ( 17.012%)
 printout                       ...        0 min,  0.000 sec (  0.250%)

         :::::::::::::::::::::::::::::::::::::::::::::::::::::
         ::                     SUMMARY                     ::
         :::::::::::::::::::::::::::::::::::::::::::::::::::::
         :: total energy             -45.781835109386 Eh    ::
         :: gradient norm              0.335381497991 Eh/a0 ::
         :: HOMO-LUMO gap              0.073746435032 eV    ::
         ::.................................................::
         :: SCC energy               -46.252028430067 Eh    ::
         :: -> isotropic ES           -0.030236838657 Eh    ::
         :: -> anisotropic ES          0.000197931588 Eh    ::
         :: -> anisotropic XC          0.030033807527 Eh    ::
         :: -> dispersion             -0.034922532987 Eh    ::
         :: repulsion energy           0.469941025554 Eh    ::
         :: add. restraining           0.000000000000 Eh    ::
         :: total charge               0.000000000001 e     ::
         :::::::::::::::::::::::::::::::::::::::::::::::::::::

      ----------------------------------------------------------- 
     |                   =====================                   |
     |                        A N C O P T                        |
     |                   =====================                   |
     |               Approximate Normal Coordinate               |
     |                Rational Function Optimizer                |
      ----------------------------------------------------------- 

          ...................................................
          :                      SETUP                      :
          :.................................................:
          :   optimization level            normal          :
          :   max. optcycles                   200          :
          :   ANC micro-cycles                  20          :
          :   degrees of freedom                57          :
          :.................................................:
          :   RF solver                   davidson          :
          :   write xtbopt.log                true          :
          :   linear?                        false          :
          :   energy convergence         0.5000000E-05 Eh   :
          :   grad. convergence          0.1000000E-02 Eh/α :
          :   maximium RF displ.         1.0000000          :
          :   Hlow (freq-cutoff)         0.1000000E-01      :
          :   Hmax (freq-cutoff)         5.0000000          :
          :   S6 in model hess.         20.0000000          :
          ...................................................

generating ANC from model Hessian ...
Using Lindh-Hessian (1995)
 Shifting diagonal of input Hessian by    9.2651028885485862E-003
 Lowest  eigenvalues of input Hessian
    0.000000    0.000000    0.000000    0.000000    0.000000    0.000000
    0.010000    0.010382    0.010887    0.011690    0.013117    0.013629
    0.014571    0.021972    0.024531    0.027978    0.032201    0.035791
 Highest eigenvalues
    1.588633    1.667449    1.743583    1.745375    1.975135    2.048368


........................................................................
.............................. CYCLE    1 ..............................
........................................................................
   1    -46.2520284 -0.462520E+02  0.198E-04    0.07       0.0  T
   2    -46.2520268  0.160146E-05  0.614E-03    0.07       3.6  T
   3    -46.2520284 -0.158301E-05  0.623E-04    0.07      35.0  T
   4    -46.2520284 -0.186744E-07  0.193E-04    0.07     113.0  T
   5    -46.2520284 -0.453056E-09  0.141E-04    0.07     155.2  T
     SCC iter.                  ...        0 min,  0.008 sec
     gradient                   ...        0 min,  0.015 sec
 * total energy  :   -45.7818351 Eh     change       -0.1687567E-08 Eh
   gradient norm :     0.3353819 Eh/α   predicted     0.0000000E+00 (-100.00%)
   displ. norm   :     0.4456126 α      lambda       -0.1275008E+00
   maximum displ.:     0.2403733 α      in ANC's #38, #39, #26, ...

........................................................................
.............................. CYCLE    2 ..............................
........................................................................
   1    -46.4209753 -0.464210E+02  0.155E+00    0.02       0.0  T
   2    -45.5884569  0.832518E+00  0.424E+00    0.27       1.0  T
   3    -45.4811526  0.107304E+00  0.504E+00    0.10       1.0  T
   4    -46.3096696 -0.828517E+00  0.205E+00    0.18       1.0  T
   5    -46.1478232  0.161846E+00  0.250E+00    0.03       1.0  T
   6    -46.2984063 -0.150583E+00  0.245E+00    0.10       1.0  T
   7    -46.4107714 -0.112365E+00  0.129E+00    0.22       1.0  T
   8    -46.3876230  0.231484E-01  0.128E+00    0.09       1.0  T
   9    -46.4078767 -0.202537E-01  0.126E+00    0.15       1.0  T
  10    -46.4156359 -0.775914E-02  0.112E+00    0.14       1.0  T
  11    -46.4194638 -0.382790E-02  0.102E+00    0.15       1.0  T
  12    -46.4381623 -0.186985E-01  0.785E-01    0.14       1.0  T
  13    -46.4496816 -0.115193E-01  0.587E-01    0.12       1.0  T
  14    -46.4533219 -0.364037E-02  0.552E-01    0.11       1.0  T
  15    -46.4573864 -0.406444E-02  0.398E-01    0.10       1.0  T
  16    -46.4612247 -0.383827E-02  0.140E-01    0.08       1.0  T
  17    -46.4600285  0.119616E-02  0.205E-01    0.07       1.0  T
  18    -46.4597901  0.238432E-03  0.208E-01    0.07       1.0  T
  19    -46.4613861 -0.159599E-02  0.947E-02    0.07       1.0  T
  20    -46.4615524 -0.166373E-03  0.694E-02    0.07       1.0  T
  21    -46.4617025 -0.150046E-03  0.153E-02    0.07       1.4  T
  22    -46.4617002  0.223850E-05  0.121E-02    0.07       1.8  T
  23    -46.4616947  0.551467E-05  0.150E-02    0.07       1.5  T
  24    -46.4617047 -0.100308E-04  0.417E-03    0.07       5.2  T
  25    -46.4617035  0.124344E-05  0.771E-03    0.07       2.8  T
  26    -46.4617051 -0.164141E-05  0.362E-03    0.07       6.0  T
  27    -46.4617053 -0.178876E-06  0.264E-03    0.07       8.3  T
  28    -46.4617056 -0.235049E-06  0.236E-04    0.07      92.6  T
  29    -46.4617056  0.793828E-08  0.524E-04    0.07      41.7  T
     SCC iter.                  ...        0 min,  0.043 sec
     gradient                   ...        0 min,  0.016 sec
 * total energy  :   -45.8819725 Eh     change       -0.1001374E+00 Eh
   gradient norm :     0.1932064 Eh/α   predicted    -0.7641832E-01 ( -23.69%)
   displ. norm   :     0.5268250 α      lambda       -0.8073423E-01
   maximum displ.:     0.2160935 α      in ANC's #38, #22, #26, ...

........................................................................
.............................. CYCLE    3 ..............................
........................................................................
   1    -46.6218633 -0.466219E+02  0.217E+00    0.11       0.0  T
   2    -45.9353926  0.686471E+00  0.408E+00    0.17       1.0  T
   3    -46.1552690 -0.219876E+00  0.333E+00    0.12       1.0  T
   4    -46.3107819 -0.155513E+00  0.397E+00    0.03       1.0  T
   5    -46.5092548 -0.198473E+00  0.212E+00    0.29       1.0  T
   6    -45.5191072  0.990148E+00  0.480E+00    0.14       1.0  T
   7    -46.5871283 -0.106802E+01  0.142E+00    0.13       1.0  T
   8    -46.6026275 -0.154992E-01  0.128E+00    0.22       1.0  T
   9    -46.5995295  0.309804E-02  0.123E+00    0.23       1.0  T
  10    -46.6258765 -0.263470E-01  0.105E+00    0.17       1.0  T
  11    -46.6302127 -0.433627E-02  0.893E-01    0.16       1.0  T
  12    -46.6379644 -0.775167E-02  0.804E-01    0.16       1.0  T
  13    -46.6385087 -0.544267E-03  0.796E-01    0.16       1.0  T
  14    -46.6386622 -0.153579E-03  0.788E-01    0.16       1.0  T
  15    -46.6424229 -0.376070E-02  0.685E-01    0.16       1.0  T
  16    -46.6465790 -0.415607E-02  0.551E-01    0.16       1.0  T
  17    -46.6522701 -0.569110E-02  0.422E-01    0.15       1.0  T
  18    -46.6542519 -0.198175E-02  0.364E-01    0.15       1.0  T
  19    -46.6544800 -0.228155E-03  0.356E-01    0.14       1.0  T
  20    -46.6591967 -0.471668E-02  0.141E-01    0.13       1.0  T
  21    -46.6596561 -0.459347E-03  0.793E-02    0.13       1.0  T
  22    -46.6597681 -0.112082E-03  0.442E-02    0.13       1.0  T
  23    -46.6598384 -0.702636E-04  0.966E-03    0.12       2.3  T
  24    -46.6598143  0.240910E-04  0.252E-02    0.12       1.0  T
  25    -46.6598382 -0.238997E-04  0.972E-03    0.12       2.2  T
  26    -46.6598403 -0.210292E-05  0.568E-03    0.12       3.8  T
  27    -46.6598413 -0.103029E-05  0.226E-03    0.12       9.7  T
  28    -46.6598415 -0.163213E-06  0.994E-04    0.12      22.0  T
  29    -46.6598415 -0.395908E-07  0.226E-04    0.12      96.4  T
     SCC iter.                  ...        0 min,  0.043 sec
     gradient                   ...        0 min,  0.016 sec
 * total energy  :   -45.9295770 Eh     change       -0.4760449E-01 Eh
   gradient norm :     0.1392521 Eh/α   predicted    -0.5157079E-01 (   8.33%)
   displ. norm   :     0.5953909 α      lambda       -0.4337926E-01
   maximum displ.:     0.2609631 α      in ANC's #22, #17, #9, ...

........................................................................
.............................. CYCLE    4 ..............................
........................................................................
   1    -46.6514451 -0.466514E+02  0.309E+00    0.29       0.0  T
   2    -45.7025795  0.948866E+00  0.443E+00    0.32       1.0  T
   3    -44.0226312  0.167995E+01  0.754E+00    0.32       1.0  T
   4    -46.5297362 -0.250711E+01  0.243E+00    0.45       1.0  T
   5    -46.4505825  0.791537E-01  0.267E+00    0.21       1.0  T
   6    -46.6840531 -0.233471E+00  0.144E+00    0.40       1.0  T
   7    -46.6049821  0.790709E-01  0.190E+00    0.49       1.0  T
   8    -46.6860849 -0.811027E-01  0.111E+00    0.43       1.0  T
   9    -46.6358206  0.502643E-01  0.160E+00    0.32       1.0  T
  10    -46.7120034 -0.761828E-01  0.678E-01    0.40       1.0  T
  11    -46.7172461 -0.524271E-02  0.698E-01    0.39       1.0  T
  12    -46.7186370 -0.139087E-02  0.461E-01    0.42       1.0  T
  13    -46.7219142 -0.327724E-02  0.386E-01    0.41       1.0  T
  14    -46.7218202  0.940147E-04  0.378E-01    0.41       1.0  T
  15    -46.7223357 -0.515514E-03  0.323E-01    0.40       1.0  T
  16    -46.7227344 -0.398629E-03  0.209E-01    0.39       1.0  T
  17    -46.7227137  0.206352E-04  0.174E-01    0.39       1.0  T
  18    -46.7227348 -0.211080E-04  0.138E-01    0.39       1.0  T
  19    -46.7227727 -0.378804E-04  0.110E-01    0.39       1.0  T
  20    -46.7227993 -0.265364E-04  0.829E-02    0.39       1.0  T
  21    -46.7228173 -0.180542E-04  0.525E-02    0.38       1.0  T
  22    -46.7228251 -0.778152E-05  0.329E-02    0.38       1.0  T
  23    -46.7228264 -0.130535E-05  0.148E-02    0.38       1.5  T
  24    -46.7228303 -0.394319E-05  0.108E-02    0.38       2.0  T
  25    -46.7228315 -0.116408E-05  0.183E-03    0.38      11.9  T
  26    -46.7228316 -0.735029E-07  0.578E-04    0.38      37.7  T
  27    -46.7228316  0.271264E-08  0.366E-04    0.38      59.7  T
     SCC iter.                  ...        0 min,  0.039 sec
     gradient                   ...        0 min,  0.016 sec
 * total energy  :   -45.9748017 Eh     change       -0.4522474E-01 Eh
   gradient norm :     0.1440761 Eh/α   predicted    -0.2937853E-01 ( -35.04%)
   displ. norm   :     0.9106488 α      lambda       -0.8033136E-01
   maximum displ.:     0.4090689 α      in ANC's #22, #17, #20, ...

........................................................................
.............................. CYCLE    5 ..............................
........................................................................
   1    -46.6279356 -0.466279E+02  0.373E+00    0.64       0.0  T
   2    -45.7575432  0.870392E+00  0.504E+00    0.09       1.0  T
   3    -44.5633790  0.119416E+01  0.709E+00    0.03       1.0  T
   4    -46.6399396 -0.207656E+01  0.186E+00    0.53       1.0  T
   5    -46.2728944  0.367045E+00  0.323E+00    0.25       1.0  T
   6    -46.7122286 -0.439334E+00  0.120E+00    0.65       1.0  T
   7    -46.6619279  0.503007E-01  0.149E+00    0.61       1.0  T
   8    -46.7053412 -0.434133E-01  0.991E-01    0.60       1.0  T
   9    -46.7287938 -0.234526E-01  0.798E-01    0.64       1.0  T
  10    -46.7331432 -0.434943E-02  0.648E-01    0.66       1.0  T
  11    -46.7392223 -0.607906E-02  0.555E-01    0.65       1.0  T
  12    -46.7416654 -0.244317E-02  0.500E-01    0.65       1.0  T
  13    -46.7438925 -0.222703E-02  0.436E-01    0.65       1.0  T
  14    -46.7479144 -0.402190E-02  0.318E-01    0.65       1.0  T
  15    -46.7485074 -0.593035E-03  0.249E-01    0.65       1.0  T
  16    -46.7488054 -0.298048E-03  0.214E-01    0.65       1.0  T
  17    -46.7484849  0.320558E-03  0.224E-01    0.65       1.0  T
  18    -46.7491930 -0.708161E-03  0.130E-01    0.65       1.0  T
  19    -46.7492743 -0.812671E-04  0.803E-02    0.64       1.0  T
  20    -46.7493421 -0.677374E-04  0.596E-02    0.64       1.0  T
  21    -46.7493876 -0.455835E-04  0.287E-02    0.64       1.0  T
  22    -46.7493961 -0.847573E-05  0.180E-02    0.64       1.2  T
  23    -46.7494062 -0.100466E-04  0.400E-03    0.64       5.5  T
  24    -46.7494018  0.438181E-05  0.118E-02    0.64       1.8  T
  25    -46.7494064 -0.457717E-05  0.315E-03    0.64       6.9  T
  26    -46.7494064 -0.503836E-08  0.316E-03    0.64       6.9  T
  27    -46.7494067 -0.316482E-06  0.658E-04    0.64      33.2  T
  28    -46.7494067 -0.820898E-08  0.142E-04    0.64     154.1  T
     SCC iter.                  ...        0 min,  0.051 sec
     gradient                   ...        0 min,  0.016 sec
 * total energy  :   -46.0178347 Eh     change       -0.4303301E-01 Eh
   gradient norm :     0.2091855 Eh/α   predicted    -0.7347423E-01 (  70.74%)
   displ. norm   :     0.5402575 α      lambda       -0.3371938E-01
   maximum displ.:     0.2005274 α      in ANC's #9, #7, #13, ...

........................................................................
.............................. CYCLE    6 ..............................
........................................................................
   1    -46.6973715 -0.466974E+02  0.139E+00    0.60       0.0  T
   2    -46.0831670  0.614204E+00  0.399E+00    0.19       1.0  T
   3    -46.6091733 -0.526006E+00  0.162E+00    0.56       1.0  T
   4    -46.6822971 -0.731238E-01  0.123E+00    0.62       1.0  T
   5    -46.6685959  0.137012E-01  0.117E+00    0.60       1.0  T
   6    -46.7120773 -0.434814E-01  0.482E-01    0.59       1.0  T
   7    -46.7165288 -0.445152E-02  0.296E-01    0.57       1.0  T
   8    -46.7156732  0.855605E-03  0.289E-01    0.58       1.0  T
   9    -46.7162352 -0.561973E-03  0.232E-01    0.58       1.0  T
  10    -46.7180339 -0.179869E-02  0.106E-01    0.57       1.0  T
  11    -46.7183914 -0.357483E-03  0.264E-02    0.57       1.0  T
  12    -46.7183996 -0.821345E-05  0.160E-02    0.58       1.4  T
  13    -46.7183951  0.448262E-05  0.174E-02    0.58       1.3  T
  14    -46.7184003 -0.521769E-05  0.127E-02    0.57       1.7  T
  15    -46.7183986  0.177778E-05  0.129E-02    0.58       1.7  T
  16    -46.7184045 -0.592129E-05  0.201E-03    0.58      10.9  T
  17    -46.7184045 -0.307839E-07  0.144E-03    0.58      15.1  T
  18    -46.7184045 -0.314631E-07  0.924E-04    0.58      23.6  T
  19    -46.7184046 -0.238977E-07  0.389E-04    0.58      56.1  T
     SCC iter.                  ...        0 min,  0.030 sec
     gradient                   ...        0 min,  0.020 sec
 * total energy  :   -46.0283417 Eh     change       -0.1050701E-01 Eh
   gradient norm :     0.2018409 Eh/α   predicted    -0.2178066E-01 ( 107.30%)
   displ. norm   :     0.5350684 α      lambda       -0.5490173E-01
   maximum displ.:     0.2215768 α      in ANC's #15, #13, #11, ...

........................................................................
.............................. CYCLE    7 ..............................
........................................................................
   1    -46.7936322 -0.467936E+02  0.166E+00    0.54       0.0  T
   2    -46.4749204  0.318712E+00  0.346E+00    0.22       1.0  T
   3    -46.7424396 -0.267519E+00  0.167E+00    0.60       1.0  T
   4    -46.8148809 -0.724413E-01  0.693E-01    0.46       1.0  T
   5    -46.8029035  0.119774E-01  0.772E-01    0.47       1.0  T
   6    -46.8158874 -0.129838E-01  0.415E-01    0.44       1.0  T
   7    -46.8219293 -0.604195E-02  0.239E-01    0.45       1.0  T
   8    -46.8231593 -0.122999E-02  0.159E-01    0.44       1.0  T
   9    -46.8239539 -0.794603E-03  0.502E-02    0.45       1.0  T
  10    -46.8239749 -0.210277E-04  0.354E-02    0.44       1.0  T
  11    -46.8239928 -0.178622E-04  0.222E-02    0.44       1.0  T
  12    -46.8239923  0.478989E-06  0.205E-02    0.44       1.1  T
  13    -46.8240052 -0.129402E-04  0.789E-03    0.44       2.8  T
  14    -46.8240072 -0.191465E-05  0.449E-03    0.44       4.9  T
  15    -46.8240076 -0.465386E-06  0.210E-03    0.44      10.4  T
  16    -46.8240077 -0.726897E-07  0.109E-03    0.44      20.0  T
  17    -46.8240077 -0.141768E-07  0.578E-04    0.44      37.8  T
  18    -46.8240077 -0.105479E-07  0.216E-04    0.44     101.1  T
     SCC iter.                  ...        0 min,  0.030 sec
     gradient                   ...        0 min,  0.016 sec
 * total energy  :   -46.0425997 Eh     change       -0.1425801E-01 Eh
   gradient norm :     0.2188295 Eh/α   predicted    -0.3531066E-01 ( 147.65%)
   displ. norm   :     0.6063697 α      lambda       -0.6606416E-01
   maximum displ.:     0.2816866 α      in ANC's #21, #20, #10, ...

........................................................................
.............................. CYCLE    8 ..............................
........................................................................
   1    -46.7486706 -0.467487E+02  0.298E+00    0.58       0.0  T
   2    -46.1686642  0.580006E+00  0.426E+00    0.57       1.0  T
   3    -46.7152441 -0.546580E+00  0.204E+00    0.65       1.0  T
   4    -46.7777729 -0.625288E-01  0.170E+00    0.52       1.0  T
   5    -46.8540876 -0.763147E-01  0.808E-01    0.60       1.0  T
   6    -46.7993553  0.547323E-01  0.123E+00    0.41       1.0  T
   7    -46.8559131 -0.565578E-01  0.696E-01    0.51       1.0  T
   8    -46.8663717 -0.104586E-01  0.487E-01    0.53       1.0  T
   9    -46.8677966 -0.142493E-02  0.394E-01    0.52       1.0  T
  10    -46.8690108 -0.121413E-02  0.290E-01    0.52       1.0  T
  11    -46.8708503 -0.183957E-02  0.212E-01    0.52       1.0  T
  12    -46.8712675 -0.417182E-03  0.180E-01    0.52       1.0  T
  13    -46.8717615 -0.493951E-03  0.136E-01    0.51       1.0  T
  14    -46.8721954 -0.433924E-03  0.850E-02    0.51       1.0  T
  15    -46.8724221 -0.226744E-03  0.165E-02    0.50       1.3  T
  16    -46.8724279 -0.577405E-05  0.669E-03    0.50       3.3  T
  17    -46.8724252  0.267852E-05  0.112E-02    0.50       1.9  T
  18    -46.8724284 -0.318344E-05  0.365E-03    0.50       6.0  T
  19    -46.8724287 -0.328084E-06  0.161E-03    0.50      13.6  T
  20    -46.8724288 -0.618421E-07  0.442E-04    0.50      49.4  T
  21    -46.8724288  0.314849E-08  0.491E-04    0.50      44.5  T
     SCC iter.                  ...        0 min,  0.031 sec
     gradient                   ...        0 min,  0.016 sec
 * total energy  :   -46.0846956 Eh     change       -0.4209587E-01 Eh
   gradient norm :     0.2218677 Eh/α   predicted    -0.4517752E-01 (   7.32%)
   displ. norm   :     0.7386896 α      lambda       -0.9976417E-01
   maximum displ.:     0.4399539 α      in ANC's #20, #21, #23, ...

........................................................................
.............................. CYCLE    9 ..............................
........................................................................
   1    -46.5929058 -0.465929E+02  0.335E+00    0.03       0.0  T
   2    -40.9223174  0.567059E+01  0.111E+01    0.22       1.0  T
   3    -46.6156047 -0.569329E+01  0.317E+00    0.30       1.0  T
   4    -46.7890627 -0.173458E+00  0.237E+00    0.39       1.0  T
   5    -46.8556878 -0.666251E-01  0.155E+00    0.22       1.0  T
   6    -46.9129930 -0.573052E-01  0.133E+00    0.33       1.0  T
   7    -46.9416118 -0.286189E-01  0.988E-01    0.48       1.0  T
   8    -46.9509153 -0.930352E-02  0.744E-01    0.47       1.0  T
   9    -46.9522208 -0.130545E-02  0.658E-01    0.50       1.0  T
  10    -46.9605838 -0.836296E-02  0.345E-01    0.56       1.0  T
  11    -46.9652820 -0.469823E-02  0.165E-01    0.54       1.0  T
  12    -46.9658852 -0.603184E-03  0.962E-02    0.54       1.0  T
  13    -46.9659243 -0.391427E-04  0.101E-01    0.54       1.0  T
  14    -46.9659373 -0.129631E-04  0.863E-02    0.54       1.0  T
  15    -46.9659983 -0.610323E-04  0.618E-02    0.54       1.0  T
  16    -46.9660303 -0.319909E-04  0.398E-02    0.55       1.0  T
  17    -46.9660575 -0.271601E-04  0.196E-02    0.55       1.1  T
  18    -46.9660555  0.192443E-05  0.184E-02    0.55       1.2  T
  19    -46.9660618 -0.631027E-05  0.639E-03    0.55       3.4  T
  20    -46.9660634 -0.152469E-05  0.176E-03    0.55      12.4  T
  21    -46.9660634  0.212765E-07  0.130E-03    0.55      16.7  T
  22    -46.9660634 -0.438386E-07  0.668E-04    0.56      32.7  T
  23    -46.9660634  0.111837E-08  0.885E-04    0.56      24.7  T
     SCC iter.                  ...        0 min,  0.035 sec
     gradient                   ...        0 min,  0.015 sec
 * total energy  :   -46.1101993 Eh     change       -0.2550370E-01 Eh
   gradient norm :     0.2473599 Eh/α   predicted    -0.7710098E-01 ( 202.31%)
   displ. norm   :     0.5083404 α      lambda       -0.9131473E-01
   maximum displ.:     0.2626122 α      in ANC's #21, #24, #20, ...

........................................................................
.............................. CYCLE   10 ..............................
........................................................................
   1    -46.7736089 -0.467736E+02  0.240E+00    0.43       0.0  T
   2    -45.5203803  0.125323E+01  0.520E+00    0.40       1.0  T
   3    -46.4933910 -0.973011E+00  0.261E+00    0.37       1.0  T
   4    -46.8086633 -0.315272E+00  0.158E+00    0.33       1.0  T
   5    -46.8340158 -0.253525E-01  0.117E+00    0.38       1.0  T
   6    -46.8656462 -0.316304E-01  0.818E-01    0.42       1.0  T
   7    -46.8620983  0.354782E-02  0.795E-01    0.34       1.0  T
   8    -46.8588405  0.325789E-02  0.745E-01    0.35       1.0  T
   9    -46.8646528 -0.581235E-02  0.569E-01    0.38       1.0  T
  10    -46.8726497 -0.799693E-02  0.294E-01    0.44       1.0  T
  11    -46.8735789 -0.929164E-03  0.243E-01    0.45       1.0  T
  12    -46.8741195 -0.540642E-03  0.204E-01    0.47       1.0  T
  13    -46.8752031 -0.108360E-02  0.100E-01    0.52       1.0  T
  14    -46.8752799 -0.767950E-04  0.570E-02    0.54       1.0  T
  15    -46.8753432 -0.632920E-04  0.404E-02    0.55       1.0  T
  16    -46.8753448 -0.161231E-05  0.296E-02    0.54       1.0  T
  17    -46.8753513 -0.641135E-05  0.262E-02    0.54       1.0  T
  18    -46.8753607 -0.948416E-05  0.159E-02    0.54       1.4  T
  19    -46.8753649 -0.415989E-05  0.954E-03    0.54       2.3  T
  20    -46.8753668 -0.190706E-05  0.488E-03    0.55       4.5  T
  21    -46.8753675 -0.677802E-06  0.125E-03    0.55      17.5  T
  22    -46.8753675 -0.451397E-07  0.537E-04    0.55      40.6  T
  23    -46.8753675 -0.818846E-08  0.217E-04    0.55     100.4  T
     SCC iter.                  ...        0 min,  0.034 sec
     gradient                   ...        0 min,  0.016 sec
 * total energy  :   -46.1283229 Eh     change       -0.1812359E-01 Eh
   gradient norm :     0.2230947 Eh/α   predicted    -0.5745569E-01 ( 217.02%)
   displ. norm   :     0.4571800 α      lambda       -0.5858693E-01
   maximum displ.:     0.1447426 α      in ANC's #8, #10, #11, ...

........................................................................
.............................. CYCLE   11 ..............................
........................................................................
   1    -46.9000986 -0.469001E+02  0.120E+00    0.60       0.0  T
   2    -46.6276671  0.272431E+00  0.291E+00    0.48       1.0  T
   3    -46.9191680 -0.291501E+00  0.846E-01    0.60       1.0  T
   4    -46.9245161 -0.534807E-02  0.582E-01    0.55       1.0  T
   5    -46.9219664  0.254974E-02  0.520E-01    0.45       1.0  T
   6    -46.9314485 -0.948215E-02  0.324E-01    0.53       1.0  T
   7    -46.9333340 -0.188554E-02  0.226E-01    0.52       1.0  T
   8    -46.9343404 -0.100630E-02  0.156E-01    0.52       1.0  T
   9    -46.9351090 -0.768628E-03  0.790E-02    0.53       1.0  T
  10    -46.9352637 -0.154715E-03  0.375E-02    0.53       1.0  T
  11    -46.9352693 -0.563694E-05  0.275E-02    0.53       1.0  T
  12    -46.9352875 -0.181318E-04  0.881E-03    0.53       2.5  T
  13    -46.9352898 -0.231967E-05  0.323E-03    0.53       6.8  T
  14    -46.9352899 -0.709351E-07  0.174E-03    0.53      12.5  T
  15    -46.9352899 -0.333482E-07  0.997E-04    0.53      21.9  T
  16    -46.9352899 -0.235243E-07  0.373E-04    0.53      58.4  T
     SCC iter.                  ...        0 min,  0.024 sec
     gradient                   ...        0 min,  0.015 sec
 * total energy  :   -46.1393514 Eh     change       -0.1102848E-01 Eh
   gradient norm :     0.2291800 Eh/α   predicted    -0.3541621E-01 ( 221.13%)
   displ. norm   :     0.2905842 α      lambda       -0.4330279E-01
   maximum displ.:     0.0959491 α      in ANC's #11, #9, #29, ...

........................................................................
.............................. CYCLE   12 ..............................
........................................................................
   1    -46.9578876 -0.469579E+02  0.929E-01    0.46       0.0  T
   2    -46.8118292  0.146058E+00  0.183E+00    0.41       1.0  T
   3    -46.9457974 -0.133968E+00  0.825E-01    0.42       1.0  T
   4    -46.9643740 -0.185766E-01  0.479E-01    0.49       1.0  T
   5    -46.9675324 -0.315836E-02  0.287E-01    0.48       1.0  T
   6    -46.9684648 -0.932424E-03  0.218E-01    0.46       1.0  T
   7    -46.9694548 -0.990037E-03  0.147E-01    0.46       1.0  T
   8    -46.9692350  0.219807E-03  0.146E-01    0.47       1.0  T
   9    -46.9694435 -0.208482E-03  0.109E-01    0.46       1.0  T
  10    -46.9698922 -0.448705E-03  0.343E-02    0.46       1.0  T
  11    -46.9699195 -0.273487E-04  0.123E-02    0.46       1.8  T
  12    -46.9699220 -0.250056E-05  0.695E-03    0.46       3.1  T
  13    -46.9699230 -0.910326E-06  0.374E-03    0.46       5.8  T
  14    -46.9699233 -0.363010E-06  0.175E-03    0.46      12.5  T
  15    -46.9699234 -0.702374E-07  0.738E-04    0.46      29.6  T
  16    -46.9699234 -0.959048E-08  0.373E-04    0.46      58.5  T
     SCC iter.                  ...        0 min,  0.024 sec
     gradient                   ...        0 min,  0.016 sec
 * total energy  :   -46.1643220 Eh     change       -0.2497065E-01 Eh
   gradient norm :     0.0691794 Eh/α   predicted    -0.2347966E-01 (  -5.97%)
   displ. norm   :     0.5047746 α      lambda       -0.1825743E-01
   maximum displ.:     0.3320255 α      in ANC's #11, #3, #23, ...

........................................................................
.............................. CYCLE   13 ..............................
........................................................................
   1    -47.0007467 -0.470007E+02  0.111E+00    0.37       0.0  T
   2    -46.9891720  0.115747E-01  0.888E-01    0.34       1.0  T
   3    -46.9786943  0.104776E-01  0.937E-01    0.43       1.0  T
   4    -46.9658262  0.128681E-01  0.989E-01    0.40       1.0  T
   5    -47.0056540 -0.398278E-01  0.146E-01    0.37       1.0  T
   6    -47.0061282 -0.474138E-03  0.843E-02    0.37       1.0  T
   7    -47.0062303 -0.102133E-03  0.588E-02    0.38       1.0  T
   8    -47.0063074 -0.770717E-04  0.327E-02    0.38       1.0  T
   9    -47.0063246 -0.172297E-04  0.195E-02    0.38       1.1  T
  10    -47.0063340 -0.935511E-05  0.623E-03    0.38       3.5  T
  11    -47.0063346 -0.587275E-06  0.268E-03    0.38       8.1  T
  12    -47.0063345  0.645239E-07  0.230E-03    0.38       9.5  T
  13    -47.0063346 -0.985245E-07  0.114E-03    0.38      19.2  T
  14    -47.0063346 -0.374581E-07  0.450E-04    0.38      48.5  T
  15    -47.0063346 -0.198302E-08  0.226E-04    0.38      96.6  T
     SCC iter.                  ...        0 min,  0.022 sec
     gradient                   ...        0 min,  0.015 sec
 * total energy  :   -46.1758024 Eh     change       -0.1148040E-01 Eh
   gradient norm :     0.0927683 Eh/α   predicted    -0.1145469E-01 (  -0.22%)
   displ. norm   :     0.5786966 α      lambda       -0.1851166E-01
   maximum displ.:     0.3116273 α      in ANC's #11, #5, #20, ...

........................................................................
.............................. CYCLE   14 ..............................
........................................................................
   1    -47.0449721 -0.470450E+02  0.103E+00    0.33       0.0  T
   2    -47.0352372  0.973486E-02  0.783E-01    0.34       1.0  T
   3    -47.0111879  0.240493E-01  0.991E-01    0.34       1.0  T
   4    -47.0393995 -0.282116E-01  0.490E-01    0.33       1.0  T
   5    -47.0432469 -0.384734E-02  0.333E-01    0.34       1.0  T
   6    -47.0471117 -0.386480E-02  0.144E-01    0.34       1.0  T
   7    -47.0479421 -0.830377E-03  0.453E-02    0.34       1.0  T
   8    -47.0479455 -0.346799E-05  0.284E-02    0.33       1.0  T
   9    -47.0479497 -0.412508E-05  0.169E-02    0.34       1.3  T
  10    -47.0479549 -0.523044E-05  0.959E-03    0.33       2.3  T
  11    -47.0479568 -0.191315E-05  0.662E-03    0.33       3.3  T
  12    -47.0479579 -0.109063E-05  0.287E-03    0.33       7.6  T
  13    -47.0479580 -0.157901E-06  0.112E-03    0.33      19.5  T
  14    -47.0479581 -0.212507E-07  0.435E-04    0.33      50.2  T
  15    -47.0479581 -0.368097E-08  0.235E-04    0.33      92.7  T
     SCC iter.                  ...        0 min,  0.022 sec
     gradient                   ...        0 min,  0.015 sec
 * total energy  :   -46.1930583 Eh     change       -0.1725586E-01 Eh
   gradient norm :     0.0926124 Eh/α   predicted    -0.1235555E-01 ( -28.40%)
   displ. norm   :     0.8597448 α      lambda       -0.3535749E-01
   maximum displ.:     0.4376563 α      in ANC's #11, #20, #23, ...

........................................................................
.............................. CYCLE   15 ..............................
........................................................................
   1    -47.1071521 -0.471072E+02  0.181E+00    0.27       0.0  T
   2    -47.0767957  0.303564E-01  0.140E+00    0.37       1.0  T
   3    -47.0576469  0.191488E-01  0.150E+00    0.22       1.0  T
   4    -47.1078786 -0.502316E-01  0.766E-01    0.27       1.0  T
   5    -47.1172989 -0.942031E-02  0.372E-01    0.35       1.0  T
   6    -47.1191293 -0.183039E-02  0.292E-01    0.28       1.0  T
   7    -47.1221315 -0.300224E-02  0.122E-01    0.31       1.0  T
   8    -47.1222833 -0.151787E-03  0.963E-02    0.30       1.0  T
   9    -47.1223556 -0.723501E-04  0.644E-02    0.30       1.0  T
  10    -47.1224446 -0.889243E-04  0.427E-02    0.30       1.0  T
  11    -47.1225099 -0.653299E-04  0.168E-02    0.30       1.3  T
  12    -47.1225177 -0.782653E-05  0.651E-03    0.30       3.4  T
  13    -47.1225185 -0.768017E-06  0.307E-03    0.30       7.1  T
  14    -47.1225187 -0.192013E-06  0.144E-03    0.30      15.1  T
  15    -47.1225187 -0.200422E-07  0.748E-04    0.30      29.2  T
  16    -47.1225187 -0.146474E-07  0.345E-04    0.30      63.2  T
     SCC iter.                  ...        0 min,  0.024 sec
     gradient                   ...        0 min,  0.015 sec
 * total energy  :   -46.2260830 Eh     change       -0.3302472E-01 Eh
   gradient norm :     0.1048945 Eh/α   predicted    -0.3074626E-01 (  -6.90%)
   displ. norm   :     0.8347321 α      lambda       -0.3681232E-01
   maximum displ.:     0.3225890 α      in ANC's #11, #20, #23, ...

........................................................................
.............................. CYCLE   16 ..............................
........................................................................
   1    -47.1540821 -0.471541E+02  0.202E+00    0.20       0.0  T
   2    -47.1134119  0.406702E-01  0.154E+00    0.50       1.0  T
   3    -46.6506585  0.462753E+00  0.343E+00    0.33       1.0  T
   4    -47.0457086 -0.395050E+00  0.164E+00    0.77       1.0  T
   5    -47.1494922 -0.103784E+00  0.806E-01    0.37       1.0  T
   6    -47.1561500 -0.665778E-02  0.574E-01    0.41       1.0  T
   7    -47.1613335 -0.518351E-02  0.420E-01    0.43       1.0  T
   8    -47.1632318 -0.189834E-02  0.356E-01    0.44       1.0  T
   9    -47.1641143 -0.882540E-03  0.301E-01    0.42       1.0  T
  10    -47.1649477 -0.833357E-03  0.223E-01    0.40       1.0  T
  11    -47.1657480 -0.800324E-03  0.158E-01    0.37       1.0  T
  12    -47.1661456 -0.397580E-03  0.113E-01    0.35       1.0  T
  13    -47.1663362 -0.190553E-03  0.789E-02    0.33       1.0  T
  14    -47.1664937 -0.157586E-03  0.229E-02    0.29       1.0  T
  15    -47.1664956 -0.182275E-05  0.119E-02    0.29       1.8  T
  16    -47.1664978 -0.220427E-05  0.647E-03    0.29       3.4  T
  17    -47.1664989 -0.111394E-05  0.281E-03    0.29       7.8  T
  18    -47.1664991 -0.195212E-06  0.894E-04    0.29      24.4  T
  19    -47.1664991 -0.103110E-07  0.645E-04    0.29      33.8  T
     SCC iter.                  ...        0 min,  0.028 sec
     gradient                   ...        0 min,  0.015 sec
 * total energy  :   -46.2494122 Eh     change       -0.2332925E-01 Eh
   gradient norm :     0.1867323 Eh/α   predicted    -0.3123125E-01 (  33.87%)
   displ. norm   :     0.7189738 α      lambda       -0.5840878E-01
   maximum displ.:     0.2267088 α      in ANC's #21, #46, #20, ...

........................................................................
.............................. CYCLE   17 ..............................
........................................................................
   1    -47.2657382 -0.472657E+02  0.208E+00    0.09       0.0  T
   2    -45.9971220  0.126862E+01  0.508E+00    0.32       1.0  T
   3    -47.2793818 -0.128226E+01  0.127E+00    0.48       1.0  T
   4    -47.1303123  0.149069E+00  0.214E+00    0.05       1.0  T
   5    -47.0368140  0.934983E-01  0.214E+00    0.80       1.0  T
   6    -47.3035611 -0.266747E+00  0.643E-01    0.29       1.0  T
   7    -47.3051816 -0.162043E-02  0.484E-01    0.30       1.0  T
   8    -47.3041240  0.105757E-02  0.483E-01    0.30       1.0  T
   9    -47.3081825 -0.405854E-02  0.365E-01    0.30       1.0  T
  10    -47.3104404 -0.225784E-02  0.220E-01    0.30       1.0  T
  11    -47.3113812 -0.940850E-03  0.138E-01    0.28       1.0  T
  12    -47.3115511 -0.169867E-03  0.117E-01    0.26       1.0  T
  13    -47.3116778 -0.126708E-03  0.102E-01    0.24       1.0  T
  14    -47.3120498 -0.372038E-03  0.434E-02    0.22       1.0  T
  15    -47.3120448  0.503040E-05  0.459E-02    0.21       1.0  T
  16    -47.3120860 -0.412091E-04  0.314E-02    0.21       1.0  T
  17    -47.3121050 -0.189372E-04  0.227E-02    0.20       1.0  T
  18    -47.3121139 -0.898044E-05  0.127E-02    0.19       1.7  T
  19    -47.3121170 -0.309795E-05  0.450E-03    0.19       4.9  T
  20    -47.3121165  0.544293E-06  0.496E-03    0.20       4.4  T
  21    -47.3121173 -0.763303E-06  0.141E-03    0.19      15.5  T
  22    -47.3121173 -0.227681E-07  0.958E-04    0.19      22.8  T
  23    -47.3121173 -0.107520E-07  0.215E-04    0.19     101.7  T
     SCC iter.                  ...        0 min,  0.034 sec
     gradient                   ...        0 min,  0.015 sec
 * total energy  :   -46.1732971 Eh     change        0.7611513E-01 Eh
   gradient norm :     0.7797693 Eh/α   predicted    -0.4430090E-01 (-158.20%)
   displ. norm   :     0.3256632 α      lambda       -0.2193451E+00
   maximum displ.:     0.1783810 α      in ANC's #11, #3, #9, ...

........................................................................
.............................. CYCLE   18 ..............................
........................................................................
   1    -47.1908207 -0.471908E+02  0.137E+00    0.26       0.0  T
   2    -47.1333988  0.574219E-01  0.132E+00    0.33       1.0  T
   3    -47.1525257 -0.191270E-01  0.135E+00    0.21       1.0  T
   4    -47.1798014 -0.272756E-01  0.893E-01    0.39       1.0  T
   5    -47.2014688 -0.216675E-01  0.334E-01    0.31       1.0  T
   6    -47.2049242 -0.345541E-02  0.170E-01    0.27       1.0  T
   7    -47.2055520 -0.627734E-03  0.944E-02    0.30       1.0  T
   8    -47.2057072 -0.155182E-03  0.462E-02    0.28       1.0  T
   9    -47.2057052  0.198662E-05  0.373E-02    0.29       1.0  T
  10    -47.2057357 -0.305680E-04  0.126E-02    0.29       1.7  T
  11    -47.2057389 -0.312097E-05  0.769E-03    0.29       2.8  T
  12    -47.2057403 -0.144025E-05  0.218E-03    0.29      10.0  T
  13    -47.2057403 -0.234552E-07  0.110E-03    0.29      19.9  T
  14    -47.2057403 -0.133811E-07  0.576E-04    0.29      37.9  T
  15    -47.2057403 -0.574541E-08  0.267E-04    0.29      81.8  T
     SCC iter.                  ...        0 min,  0.022 sec
     gradient                   ...        0 min,  0.015 sec
 * total energy  :   -46.2714550 Eh     change       -0.9815788E-01 Eh
   gradient norm :     0.1091664 Eh/α   predicted    -0.1213040E+00 (  23.58%)
   displ. norm   :     0.5966225 α      lambda       -0.2852044E-01
   maximum displ.:     0.3173099 α      in ANC's #4, #20, #1, ...

........................................................................
.............................. CYCLE   19 ..............................
........................................................................
   1    -47.2194891 -0.472195E+02  0.140E+00    0.44       0.0  T
   2    -47.1878352  0.316539E-01  0.117E+00    0.25       1.0  T
   3    -47.1505487  0.372864E-01  0.147E+00    0.31       1.0  T
   4    -47.1933021 -0.427533E-01  0.949E-01    0.45       1.0  T
   5    -47.2242399 -0.309379E-01  0.286E-01    0.34       1.0  T
   6    -47.2266865 -0.244655E-02  0.132E-01    0.30       1.0  T
   7    -47.2269715 -0.284993E-03  0.801E-02    0.34       1.0  T
   8    -47.2270913 -0.119856E-03  0.504E-02    0.32       1.0  T
   9    -47.2271576 -0.663058E-04  0.271E-02    0.32       1.0  T
  10    -47.2271679 -0.102816E-04  0.170E-02    0.32       1.3  T
  11    -47.2271759 -0.800305E-05  0.522E-03    0.32       4.2  T
  12    -47.2271764 -0.478333E-06  0.223E-03    0.32       9.8  T
  13    -47.2271765 -0.538876E-07  0.118E-03    0.32      18.5  T
  14    -47.2271765 -0.197922E-07  0.523E-04    0.32      41.7  T
  15    -47.2271765 -0.544497E-08  0.222E-04    0.32      98.4  T
     SCC iter.                  ...        0 min,  0.022 sec
     gradient                   ...        0 min,  0.015 sec
 * total energy  :   -46.2683636 Eh     change        0.3091426E-02 Eh
   gradient norm :     0.1602998 Eh/α   predicted    -0.1933632E-01 (-725.48%)
   displ. norm   :     0.4634689 α      lambda       -0.2941603E-01
   maximum displ.:     0.1839495 α      in ANC's #11, #8, #23, ...

........................................................................
.............................. CYCLE   20 ..............................
........................................................................
   1    -47.1865127 -0.471865E+02  0.827E-01    0.26       0.0  T
   2    -47.1847024  0.181028E-02  0.555E-01    0.33       1.0  T
   3    -47.1712428  0.134596E-01  0.756E-01    0.31       1.0  T
   4    -47.1797817 -0.853890E-02  0.431E-01    0.32       1.0  T
   5    -47.1859741 -0.619245E-02  0.196E-01    0.33       1.0  T
   6    -47.1875464 -0.157222E-02  0.694E-02    0.32       1.0  T
   7    -47.1876976 -0.151284E-03  0.256E-02    0.32       1.0  T
   8    -47.1877042 -0.651554E-05  0.167E-02    0.33       1.3  T
   9    -47.1877111 -0.691880E-05  0.975E-03    0.32       2.2  T
  10    -47.1877124 -0.132119E-05  0.685E-03    0.33       3.2  T
  11    -47.1877135 -0.109265E-05  0.218E-03    0.33      10.0  T
  12    -47.1877136 -0.101409E-06  0.101E-03    0.33      21.5  T
  13    -47.1877136 -0.174279E-07  0.447E-04    0.33      48.8  T
  14    -47.1877136 -0.299402E-08  0.152E-04    0.33     143.4  T
     SCC iter.                  ...        0 min,  0.020 sec
     gradient                   ...        0 min,  0.015 sec
 * total energy  :   -46.2830499 Eh     change       -0.1468632E-01 Eh
   gradient norm :     0.0836842 Eh/α   predicted    -0.1786731E-01 (  21.66%)
   displ. norm   :     0.6343902 α      lambda       -0.2286128E-01
   maximum displ.:     0.2047921 α      in ANC's #20, #21, #10, ...
 * RMSD in coord.:     1.2786149 α      energy gain  -0.5012148E+00 Eh

generating ANC from model Hessian ...
Using Lindh-Hessian (1995)
 Shifting diagonal of input Hessian by    9.9364600452731579E-003
 Lowest  eigenvalues of input Hessian
    0.000000    0.000000    0.000000    0.000000    0.000000    0.000000
    0.010000    0.010125    0.010260    0.010524    0.010648    0.011078
    0.011648    0.012222    0.012481    0.016714    0.018433    0.022110
 Highest eigenvalues
    2.012030    2.105301    2.199144    2.739496    2.897522    3.040605


........................................................................
.............................. CYCLE   21 ..............................
........................................................................
   1    -47.2291951 -0.472292E+02  0.141E+00    0.10       0.0  T
   2    -46.8202061  0.408989E+00  0.292E+00    0.57       1.0  T
   3    -47.2267820 -0.406576E+00  0.911E-01    0.16       1.0  T
   4    -47.2166838  0.100982E-01  0.105E+00    0.12       1.0  T
   5    -47.2353246 -0.186408E-01  0.510E-01    0.14       1.0  T
   6    -47.2364700 -0.114532E-02  0.443E-01    0.17       1.0  T
   7    -47.2419241 -0.545419E-02  0.280E-01    0.13       1.0  T
   8    -47.2433760 -0.145190E-02  0.188E-01    0.23       1.0  T
   9    -47.2442151 -0.839069E-03  0.134E-01    0.19       1.0  T
  10    -47.2444285 -0.213334E-03  0.107E-01    0.19       1.0  T
  11    -47.2445837 -0.155257E-03  0.730E-02    0.19       1.0  T
  12    -47.2446816 -0.978827E-04  0.350E-02    0.21       1.0  T
  13    -47.2447048 -0.232004E-04  0.160E-02    0.21       1.4  T
  14    -47.2447079 -0.315221E-05  0.735E-03    0.21       3.0  T
  15    -47.2447086 -0.691110E-06  0.278E-03    0.21       7.8  T
  16    -47.2447087 -0.868624E-07  0.144E-03    0.21      15.1  T
  17    -47.2447088 -0.323871E-07  0.627E-04    0.21      34.8  T
  18    -47.2447088 -0.444514E-08  0.391E-04    0.21      55.8  T
     SCC iter.                  ...        0 min,  0.026 sec
     gradient                   ...        0 min,  0.015 sec
 * total energy  :   -46.2766124 Eh     change        0.6437516E-02 Eh
   gradient norm :     0.2346082 Eh/α   predicted     0.0000000E+00 (-100.00%)
   displ. norm   :     0.4288054 α      lambda       -0.3634735E-01
   maximum displ.:     0.2135439 α      in ANC's #9, #10, #11, ...

........................................................................
.............................. CYCLE   22 ..............................
........................................................................
   1    -47.2277356 -0.472277E+02  0.705E-01    0.20       0.0  T
   2    -47.2073015  0.204341E-01  0.907E-01    0.31       1.0  T
   3    -47.2289038 -0.216023E-01  0.455E-01    0.19       1.0  T
   4    -47.2264155  0.248829E-02  0.443E-01    0.29       1.0  T
   5    -47.2292696 -0.285412E-02  0.334E-01    0.25       1.0  T
   6    -47.2334306 -0.416103E-02  0.118E-01    0.20       1.0  T
   7    -47.2339343 -0.503620E-03  0.264E-02    0.23       1.0  T
   8    -47.2339514 -0.171414E-04  0.130E-02    0.23       1.7  T
   9    -47.2339523 -0.923567E-06  0.101E-02    0.23       2.2  T
  10    -47.2339544 -0.213286E-05  0.461E-03    0.23       4.7  T
  11    -47.2339549 -0.468055E-06  0.249E-03    0.23       8.8  T
  12    -47.2339550 -0.113024E-06  0.993E-04    0.23      22.0  T
  13    -47.2339550 -0.147966E-07  0.434E-04    0.23      50.3  T
     SCC iter.                  ...        0 min,  0.023 sec
     gradient                   ...        0 min,  0.015 sec
 * total energy  :   -46.2991301 Eh     change       -0.2251776E-01 Eh
   gradient norm :     0.0557085 Eh/α   predicted    -0.2152937E-01 (  -4.39%)
   displ. norm   :     0.5627095 α      lambda       -0.1198080E-01
   maximum displ.:     0.2965198 α      in ANC's #7, #10, #2, ...

........................................................................
.............................. CYCLE   23 ..............................
........................................................................
   1    -47.2483811 -0.472484E+02  0.498E-01    0.19       0.0  T
   2    -47.2442423  0.413876E-02  0.454E-01    0.32       1.0  T
   3    -47.2424167  0.182567E-02  0.455E-01    0.17       1.0  T
   4    -47.2467149 -0.429827E-02  0.260E-01    0.30       1.0  T
   5    -47.2486533 -0.193839E-02  0.127E-01    0.26       1.0  T
   6    -47.2492539 -0.600534E-03  0.519E-02    0.23       1.0  T
   7    -47.2493292 -0.753362E-04  0.232E-02    0.23       1.0  T
   8    -47.2493400 -0.107625E-04  0.972E-03    0.22       2.2  T
   9    -47.2493413 -0.134523E-05  0.733E-03    0.23       3.0  T
  10    -47.2493418 -0.512123E-06  0.587E-03    0.23       3.7  T
  11    -47.2493428 -0.100698E-05  0.136E-03    0.23      16.1  T
  12    -47.2493428 -0.100020E-07  0.802E-04    0.23      27.2  T
  13    -47.2493429 -0.115764E-07  0.409E-04    0.23      53.4  T
     SCC iter.                  ...        0 min,  0.019 sec
     gradient                   ...        0 min,  0.015 sec
 * total energy  :   -46.3084131 Eh     change       -0.9282942E-02 Eh
   gradient norm :     0.0433055 Eh/α   predicted    -0.7887213E-02 ( -15.04%)
   displ. norm   :     0.6731919 α      lambda       -0.1101171E-01
   maximum displ.:     0.3586104 α      in ANC's #9, #10, #7, ...

........................................................................
.............................. CYCLE   24 ..............................
........................................................................
   1    -47.2359000 -0.472359E+02  0.836E-01    0.10       0.0  T
   2    -47.2151436  0.207564E-01  0.914E-01    0.82       1.0  T
   3    -47.2367308 -0.215872E-01  0.584E-01    0.22       1.0  T
   4    -47.2381940 -0.146322E-02  0.408E-01    0.11       1.0  T
   5    -47.2389916 -0.797529E-03  0.332E-01    0.29       1.0  T
   6    -47.2421989 -0.320732E-02  0.169E-01    0.24       1.0  T
   7    -47.2426817 -0.482777E-03  0.112E-01    0.22       1.0  T
   8    -47.2429616 -0.279898E-03  0.595E-02    0.20       1.0  T
   9    -47.2430125 -0.509033E-04  0.379E-02    0.17       1.0  T
  10    -47.2430572 -0.447480E-04  0.198E-02    0.19       1.1  T
  11    -47.2430658 -0.861307E-05  0.825E-03    0.19       2.6  T
  12    -47.2430671 -0.126540E-05  0.446E-03    0.19       4.9  T
  13    -47.2430676 -0.468888E-06  0.137E-03    0.19      15.9  T
  14    -47.2430676 -0.853450E-08  0.103E-03    0.19      21.2  T
  15    -47.2430676 -0.238937E-07  0.299E-04    0.19      73.0  T
  16    -47.2430676  0.550749E-08  0.490E-04    0.19      44.6  T
     SCC iter.                  ...        0 min,  0.023 sec
     gradient                   ...        0 min,  0.015 sec
 * total energy  :   -46.3159499 Eh     change       -0.7536823E-02 Eh
   gradient norm :     0.0430426 Eh/α   predicted    -0.8001042E-02 (   6.16%)
   displ. norm   :     0.7205926 α      lambda       -0.1131655E-01
   maximum displ.:     0.4466763 α      in ANC's #7, #2, #10, ...

........................................................................
.............................. CYCLE   25 ..............................
........................................................................
   1    -47.2522518 -0.472523E+02  0.983E-01    0.12       0.0  T
   2    -47.2467747  0.547709E-02  0.712E-01    0.52       1.0  T
   3    -47.0737130  0.173062E+00  0.209E+00    0.15       1.0  T
   4    -47.2469544 -0.173241E+00  0.555E-01    0.64       1.0  T
   5    -47.2497144 -0.276004E-02  0.414E-01    0.54       1.0  T
   6    -47.2500875 -0.373153E-03  0.381E-01    0.51       1.0  T
   7    -47.2515047 -0.141711E-02  0.328E-01    0.47       1.0  T
   8    -47.2524603 -0.955587E-03  0.284E-01    0.42       1.0  T
   9    -47.2527086 -0.248330E-03  0.265E-01    0.38       1.0  T
  10    -47.2532797 -0.571115E-03  0.219E-01    0.32       1.0  T
  11    -47.2539895 -0.709806E-03  0.149E-01    0.25       1.0  T
  12    -47.2546339 -0.644375E-03  0.403E-02    0.18       1.0  T
  13    -47.2545780  0.558527E-04  0.592E-02    0.19       1.0  T
  14    -47.2546714 -0.933364E-04  0.220E-02    0.17       1.0  T
  15    -47.2546349  0.365024E-04  0.396E-02    0.19       1.0  T
  16    -47.2546815 -0.466417E-04  0.114E-02    0.17       1.9  T
  17    -47.2546813  0.152595E-06  0.114E-02    0.18       1.9  T
  18    -47.2546856 -0.422772E-05  0.106E-03    0.17      20.6  T
  19    -47.2546856 -0.284604E-07  0.453E-04    0.17      48.2  T
  20    -47.2546856  0.179041E-08  0.449E-04    0.17      48.6  T
     SCC iter.                  ...        0 min,  0.029 sec
     gradient                   ...        0 min,  0.015 sec
 * total energy  :   -46.3232783 Eh     change       -0.7328370E-02 Eh
   gradient norm :     0.0469764 Eh/α   predicted    -0.8596379E-02 (  17.30%)
   displ. norm   :     0.6613202 α      lambda       -0.8574569E-02
   maximum displ.:     0.3990417 α      in ANC's #8, #10, #7, ...

........................................................................
.............................. CYCLE   26 ..............................
........................................................................
   1    -47.2032353 -0.472032E+02  0.189E+00    0.07       0.0  T
   2    -44.9052140  0.229802E+01  0.597E+00    0.13       1.0  T
   3    -47.2483727 -0.234316E+01  0.112E+00    0.11       1.0  T
   4    -47.2469315  0.144124E-02  0.835E-01    0.08       1.0  T
   5    -47.2289231  0.180084E-01  0.860E-01    0.07       1.0  T
   6    -47.2465582 -0.176351E-01  0.717E-01    0.16       1.0  T
   7    -47.2609652 -0.144070E-01  0.357E-01    0.14       1.0  T
   8    -47.2617362 -0.771045E-03  0.190E-01    0.11       1.0  T
   9    -47.2624449 -0.708638E-03  0.178E-01    0.15       1.0  T
  10    -47.2625790 -0.134159E-03  0.108E-01    0.14       1.0  T
  11    -47.2626232 -0.442142E-04  0.332E-02    0.14       1.0  T
  12    -47.2626514 -0.281489E-04  0.287E-02    0.14       1.0  T
  13    -47.2626532 -0.186278E-05  0.972E-03    0.14       2.2  T
  14    -47.2626550 -0.180141E-05  0.130E-02    0.14       1.7  T
  15    -47.2626562 -0.111378E-05  0.731E-03    0.14       3.0  T
  16    -47.2626563 -0.142109E-06  0.395E-03    0.14       5.5  T
  17    -47.2626564 -0.978795E-07  0.786E-04    0.14      27.8  T
  18    -47.2626564 -0.118176E-07  0.918E-04    0.14      23.8  T
     SCC iter.                  ...        0 min,  0.026 sec
     gradient                   ...        0 min,  0.014 sec
 * total energy  :   -46.3285771 Eh     change       -0.5298839E-02 Eh
   gradient norm :     0.0553493 Eh/α   predicted    -0.6162310E-02 (  16.30%)
   displ. norm   :     0.5419564 α      lambda       -0.7107803E-02
   maximum displ.:     0.2324803 α      in ANC's #7, #9, #1, ...

........................................................................
.............................. CYCLE   27 ..............................
........................................................................
   1    -47.2642223 -0.472642E+02  0.102E+00    0.05       0.0  T
   2    -46.9151458  0.349076E+00  0.278E+00    0.52       1.0  T
   3    -47.2780949 -0.362949E+00  0.519E-01    0.08       1.0  T
   4    -47.2760767  0.201815E-02  0.563E-01    0.22       1.0  T
   5    -47.2836094 -0.753263E-02  0.306E-01    0.14       1.0  T
   6    -47.2824756  0.113378E-02  0.287E-01    0.11       1.0  T
   7    -47.2839169 -0.144128E-02  0.211E-01    0.11       1.0  T
   8    -47.2849971 -0.108023E-02  0.128E-01    0.10       1.0  T
   9    -47.2854390 -0.441905E-03  0.415E-02    0.12       1.0  T
  10    -47.2854875 -0.485142E-04  0.354E-02    0.12       1.0  T
  11    -47.2855012 -0.137394E-04  0.190E-02    0.12       1.1  T
  12    -47.2855011  0.159554E-06  0.156E-02    0.12       1.4  T
  13    -47.2855036 -0.254232E-05  0.764E-03    0.12       2.9  T
  14    -47.2855050 -0.134718E-05  0.117E-03    0.12      18.7  T
  15    -47.2855050 -0.145561E-07  0.560E-04    0.12      39.0  T
  16    -47.2855050  0.609182E-08  0.800E-04    0.12      27.3  T
     SCC iter.                  ...        0 min,  0.023 sec
     gradient                   ...        0 min,  0.014 sec
 * total energy  :   -46.3328130 Eh     change       -0.4235891E-02 Eh
   gradient norm :     0.0382059 Eh/α   predicted    -0.4597755E-02 (   8.54%)
   displ. norm   :     0.5410550 α      lambda       -0.4167083E-02
   maximum displ.:     0.2353379 α      in ANC's #7, #1, #2, ...

........................................................................
.............................. CYCLE   28 ..............................
........................................................................
   1    -47.2707754 -0.472708E+02  0.693E-01    0.08       0.0  T
   2    -47.2615019  0.927350E-02  0.642E-01    0.40       1.0  T
   3    -47.1756972  0.858047E-01  0.165E+00    0.10       1.0  T
   4    -47.2571044 -0.814072E-01  0.695E-01    0.41       1.0  T
   5    -47.2657040 -0.859955E-02  0.488E-01    0.39       1.0  T
   6    -47.2665412 -0.837248E-03  0.451E-01    0.35       1.0  T
   7    -47.2671071 -0.565903E-03  0.428E-01    0.30       1.0  T
   8    -47.2675510 -0.443908E-03  0.407E-01    0.28       1.0  T
   9    -47.2687210 -0.116997E-02  0.352E-01    0.23       1.0  T
  10    -47.2714080 -0.268705E-02  0.193E-01    0.15       1.0  T
  11    -47.2726447 -0.123663E-02  0.160E-02    0.11       1.4  T
  12    -47.2723725  0.272185E-03  0.930E-02    0.12       1.0  T
  13    -47.2714980  0.874532E-03  0.190E-01    0.08       1.0  T
  14    -47.2725809 -0.108294E-02  0.466E-02    0.11       1.0  T
  15    -47.2726045 -0.235816E-04  0.368E-02    0.11       1.0  T
  16    -47.2726454 -0.409370E-04  0.869E-03    0.11       2.5  T
  17    -47.2726474 -0.198135E-05  0.344E-03    0.11       6.3  T
  18    -47.2726477 -0.323389E-06  0.136E-03    0.11      16.0  T
  19    -47.2726477  0.564334E-08  0.143E-03    0.11      15.2  T
  20    -47.2726478 -0.633472E-07  0.201E-04    0.11     108.8  T
  21    -47.2726478 -0.119901E-08  0.425E-05    0.11     513.1  T
     SCC iter.                  ...        0 min,  0.031 sec
     gradient                   ...        0 min,  0.014 sec
 * total energy  :   -46.3356951 Eh     change       -0.2882087E-02 Eh
   gradient norm :     0.0457616 Eh/α   predicted    -0.2693480E-02 (  -6.54%)
   displ. norm   :     0.4727818 α      lambda       -0.4780143E-02
   maximum displ.:     0.1951918 α      in ANC's #4, #7, #1, ...

........................................................................
.............................. CYCLE   29 ..............................
........................................................................
   1    -47.2937312 -0.472937E+02  0.471E-01    0.10       0.0  T
   2    -47.2860827  0.764855E-02  0.553E-01    0.04       1.0  T
   3    -47.2866180 -0.535343E-03  0.516E-01    0.33       1.0  T
   4    -47.2899390 -0.332097E-02  0.407E-01    0.16       1.0  T
   5    -47.2900721 -0.133144E-03  0.354E-01    0.20       1.0  T
   6    -47.2917294 -0.165728E-02  0.267E-01    0.16       1.0  T
   7    -47.2936254 -0.189595E-02  0.117E-01    0.12       1.0  T
   8    -47.2940045 -0.379140E-03  0.338E-02    0.10       1.0  T
   9    -47.2940185 -0.139938E-04  0.318E-02    0.10       1.0  T
  10    -47.2940507 -0.322530E-04  0.128E-02    0.10       1.7  T
  11    -47.2940547 -0.393712E-05  0.383E-03    0.10       5.7  T
  12    -47.2940525  0.217772E-05  0.908E-03    0.09       2.4  T
  13    -47.2940543 -0.179166E-05  0.500E-03    0.10       4.4  T
  14    -47.2940550 -0.731052E-06  0.476E-04    0.10      45.8  T
  15    -47.2940550  0.369476E-07  0.118E-03    0.10      18.6  T
  16    -47.2940550 -0.420998E-07  0.187E-04    0.10     117.0  T
     SCC iter.                  ...        0 min,  0.023 sec
     gradient                   ...        0 min,  0.014 sec
 * total energy  :   -46.3383050 Eh     change       -0.2609916E-02 Eh
   gradient norm :     0.0330180 Eh/α   predicted    -0.2924300E-02 (  12.05%)
   displ. norm   :     0.5332103 α      lambda       -0.3453785E-02
   maximum displ.:     0.2280190 α      in ANC's #7, #2, #8, ...

........................................................................
.............................. CYCLE   30 ..............................
........................................................................
   1    -47.2880220 -0.472880E+02  0.479E-01    0.09       0.0  T
   2    -47.2864505  0.157144E-02  0.351E-01    0.09       1.0  T
   3    -47.2671479  0.193027E-01  0.707E-01    0.05       1.0  T
   4    -47.2819335 -0.147856E-01  0.451E-01    0.27       1.0  T
   5    -47.2877788 -0.584530E-02  0.122E-01    0.10       1.0  T
   6    -47.2874741  0.304677E-03  0.160E-01    0.12       1.0  T
   7    -47.2882191 -0.745015E-03  0.536E-02    0.10       1.0  T
   8    -47.2882632 -0.440775E-04  0.384E-02    0.09       1.0  T
   9    -47.2883062 -0.430341E-04  0.994E-03    0.09       2.2  T
  10    -47.2883071 -0.869767E-06  0.100E-02    0.09       2.2  T
  11    -47.2883093 -0.224538E-05  0.348E-03    0.09       6.3  T
  12    -47.2883093  0.568410E-07  0.370E-03    0.09       5.9  T
  13    -47.2883097 -0.420006E-06  0.700E-04    0.09      31.2  T
  14    -47.2883096  0.341657E-07  0.121E-03    0.09      18.1  T
  15    -47.2883097 -0.469302E-07  0.943E-05    0.09     231.5  T
     SCC iter.                  ...        0 min,  0.022 sec
     gradient                   ...        0 min,  0.015 sec
 * total energy  :   -46.3407824 Eh     change       -0.2477454E-02 Eh
   gradient norm :     0.0267313 Eh/α   predicted    -0.2217872E-02 ( -10.48%)
   displ. norm   :     0.5368100 α      lambda       -0.3595532E-02
   maximum displ.:     0.2554761 α      in ANC's #7, #8, #9, ...

........................................................................
.............................. CYCLE   31 ..............................
........................................................................
   1    -47.2830474 -0.472830E+02  0.705E-01    0.05       0.0  T
   2    -47.2681202  0.149272E-01  0.851E-01    0.66       1.0  T
   3    -47.2849593 -0.168390E-01  0.464E-01    0.13       1.0  T
   4    -47.2738337  0.111256E-01  0.650E-01    0.03       1.0  T
   5    -47.2751692 -0.133552E-02  0.561E-01    0.21       1.0  T
   6    -47.2853299 -0.101607E-01  0.293E-01    0.15       1.0  T
   7    -47.2876834 -0.235343E-02  0.116E-01    0.11       1.0  T
   8    -47.2879506 -0.267262E-03  0.561E-02    0.09       1.0  T
   9    -47.2880101 -0.595254E-04  0.418E-02    0.10       1.0  T
  10    -47.2880565 -0.463595E-04  0.708E-03    0.09       3.1  T
  11    -47.2880489  0.758746E-05  0.166E-02    0.09       1.3  T
  12    -47.2880578 -0.891468E-05  0.177E-03    0.09      12.4  T
  13    -47.2880578  0.172084E-07  0.148E-03    0.09      14.8  T
  14    -47.2880579 -0.396128E-07  0.840E-04    0.09      26.0  T
  15    -47.2880579  0.168603E-08  0.872E-04    0.09      25.0  T
     SCC iter.                  ...        0 min,  0.022 sec
     gradient                   ...        0 min,  0.014 sec
 * total energy  :   -46.3427526 Eh     change       -0.1970183E-02 Eh
   gradient norm :     0.0397447 Eh/α   predicted    -0.2315815E-02 (  17.54%)
   displ. norm   :     0.5259511 α      lambda       -0.3502610E-02
   maximum displ.:     0.2472780 α      in ANC's #9, #7, #4, ...

........................................................................
.............................. CYCLE   32 ..............................
........................................................................
   1    -47.2963634 -0.472964E+02  0.568E-01    0.07       0.0  T
   2    -47.2871764  0.918703E-02  0.630E-01    0.32       1.0  T
   3    -47.2361810  0.509954E-01  0.136E+00    0.06       1.0  T
   4    -47.2842265 -0.480455E-01  0.651E-01    0.29       1.0  T
   5    -47.2901914 -0.596490E-02  0.497E-01    0.29       1.0  T
   6    -47.2914805 -0.128911E-02  0.461E-01    0.28       1.0  T
   7    -47.2925811 -0.110063E-02  0.421E-01    0.24       1.0  T
   8    -47.2939083 -0.132716E-02  0.364E-01    0.19       1.0  T
   9    -47.2947729 -0.864692E-03  0.320E-01    0.17       1.0  T
  10    -47.2978527 -0.307973E-02  0.543E-02    0.10       1.0  T
  11    -47.2978239  0.287477E-04  0.670E-02    0.10       1.0  T
  12    -47.2978556 -0.317181E-04  0.578E-02    0.08       1.0  T
  13    -47.2979196 -0.639705E-04  0.356E-02    0.10       1.0  T
  14    -47.2979566 -0.369795E-04  0.403E-03    0.09       5.4  T
  15    -47.2979540  0.257731E-05  0.993E-03    0.09       2.2  T
  16    -47.2979556 -0.157742E-05  0.682E-03    0.09       3.2  T
  17    -47.2979570 -0.141515E-05  0.798E-04    0.09      27.3  T
  18    -47.2979570 -0.603265E-09  0.752E-04    0.09      29.0  T
  19    -47.2979570  0.181289E-07  0.108E-03    0.09      20.2  T
  20    -47.2979570 -0.353909E-07  0.237E-05    0.09     922.1  T
     SCC iter.                  ...        0 min,  0.029 sec
     gradient                   ...        0 min,  0.014 sec
 * total energy  :   -46.3443288 Eh     change       -0.1576159E-02 Eh
   gradient norm :     0.0536545 Eh/α   predicted    -0.2235758E-02 (  41.85%)
   displ. norm   :     0.4000934 α      lambda       -0.2550561E-02
   maximum displ.:     0.2163669 α      in ANC's #7, #8, #2, ...

........................................................................
.............................. CYCLE   33 ..............................
........................................................................
   1    -47.2891938 -0.472892E+02  0.446E-01    0.09       0.0  T
   2    -47.2835577  0.563615E-02  0.470E-01    0.12       1.0  T
   3    -47.2501258  0.334319E-01  0.112E+00    0.04       1.0  T
   4    -47.2850277 -0.349019E-01  0.432E-01    0.17       1.0  T
   5    -47.2895981 -0.457044E-02  0.177E-01    0.12       1.0  T
   6    -47.2893376  0.260493E-03  0.182E-01    0.12       1.0  T
   7    -47.2897250 -0.387350E-03  0.146E-01    0.12       1.0  T
   8    -47.2901361 -0.411165E-03  0.943E-02    0.11       1.0  T
   9    -47.2903593 -0.223132E-03  0.399E-02    0.10       1.0  T
  10    -47.2904051 -0.458795E-04  0.571E-03    0.09       3.8  T
  11    -47.2904056 -0.452951E-06  0.367E-03    0.09       5.9  T
  12    -47.2904059 -0.293689E-06  0.244E-03    0.09       8.9  T
  13    -47.2904060 -0.131451E-06  0.127E-03    0.09      17.2  T
  14    -47.2904060 -0.386944E-07  0.202E-04    0.09     108.2  T
  15    -47.2904060  0.650751E-09  0.225E-04    0.09      97.0  T
     SCC iter.                  ...        0 min,  0.022 sec
     gradient                   ...        0 min,  0.014 sec
 * total energy  :   -46.3459722 Eh     change       -0.1643419E-02 Eh
   gradient norm :     0.0291425 Eh/α   predicted    -0.1479420E-02 (  -9.98%)
   displ. norm   :     0.3543044 α      lambda       -0.1954556E-02
   maximum displ.:     0.1906053 α      in ANC's #7, #8, #6, ...

........................................................................
.............................. CYCLE   34 ..............................
........................................................................
   1    -47.2981747 -0.472982E+02  0.434E-01    0.06       0.0  T
   2    -47.2884561  0.971854E-02  0.627E-01    0.41       1.0  T
   3    -47.2968006 -0.834445E-02  0.331E-01    0.06       1.0  T
   4    -47.2940574  0.274320E-02  0.398E-01    0.18       1.0  T
   5    -47.2992297 -0.517238E-02  0.127E-01    0.09       1.0  T
   6    -47.2996116 -0.381825E-03  0.665E-02    0.09       1.0  T
   7    -47.2997334 -0.121832E-03  0.294E-02    0.09       1.0  T
   8    -47.2997338 -0.358986E-06  0.278E-02    0.09       1.0  T
   9    -47.2997359 -0.209101E-05  0.320E-02    0.10       1.0  T
  10    -47.2997525 -0.166973E-04  0.193E-02    0.09       1.1  T
  11    -47.2997649 -0.123664E-04  0.245E-03    0.09       8.9  T
  12    -47.2997642  0.708212E-06  0.531E-03    0.09       4.1  T
  13    -47.2997650 -0.795353E-06  0.105E-03    0.09      20.7  T
  14    -47.2997650 -0.254874E-07  0.558E-04    0.09      39.1  T
  15    -47.2997650 -0.294184E-08  0.436E-04    0.09      50.0  T
     SCC iter.                  ...        0 min,  0.022 sec
     gradient                   ...        0 min,  0.014 sec
 * total energy  :   -46.3472540 Eh     change       -0.1281790E-02 Eh
   gradient norm :     0.0208171 Eh/α   predicted    -0.1099967E-02 ( -14.19%)
   displ. norm   :     0.5799139 α      lambda       -0.2189568E-02
   maximum displ.:     0.3118971 α      in ANC's #7, #9, #8, ...

........................................................................
.............................. CYCLE   35 ..............................
........................................................................
   1    -47.2768356 -0.472768E+02  0.704E-01    0.04       0.0  T
   2    -47.1312925  0.145543E+00  0.192E+00    0.84       1.0  T
   3    -47.2845406 -0.153248E+00  0.327E-01    0.09       1.0  T
   4    -47.2823821  0.215846E-02  0.346E-01    0.13       1.0  T
   5    -47.2841196 -0.173749E-02  0.230E-01    0.07       1.0  T
   6    -47.2837689  0.350744E-03  0.226E-01    0.07       1.0  T
   7    -47.2850628 -0.129394E-02  0.897E-02    0.09       1.0  T
   8    -47.2853040 -0.241165E-03  0.514E-02    0.09       1.0  T
   9    -47.2853963 -0.922990E-04  0.186E-02    0.09       1.2  T
  10    -47.2853931  0.315477E-05  0.241E-02    0.09       1.0  T
  11    -47.2854022 -0.907095E-05  0.130E-02    0.09       1.7  T
  12    -47.2854057 -0.347520E-05  0.511E-03    0.09       4.3  T
  13    -47.2854061 -0.418267E-06  0.193E-03    0.09      11.3  T
  14    -47.2854062 -0.918423E-07  0.872E-04    0.09      25.0  T
  15    -47.2854062 -0.701223E-08  0.512E-04    0.09      42.6  T
     SCC iter.                  ...        0 min,  0.022 sec
     gradient                   ...        0 min,  0.014 sec
 * total energy  :   -46.3482635 Eh     change       -0.1009517E-02 Eh
   gradient norm :     0.0305466 Eh/α   predicted    -0.1462971E-02 (  44.92%)
   displ. norm   :     0.4209454 α      lambda       -0.2677948E-02
   maximum displ.:     0.2088616 α      in ANC's #2, #9, #11, ...

........................................................................
.............................. CYCLE   36 ..............................
........................................................................
   1    -47.3124263 -0.473124E+02  0.454E-01    0.10       0.0  T
   2    -47.2486621  0.637643E-01  0.147E+00    0.07       1.0  T
   3    -47.3092512 -0.605891E-01  0.399E-01    0.15       1.0  T
   4    -47.3043221  0.492903E-02  0.500E-01    0.06       1.0  T
   5    -47.3114508 -0.712870E-02  0.200E-01    0.10       1.0  T
   6    -47.3125628 -0.111200E-02  0.124E-01    0.11       1.0  T
   7    -47.3127120 -0.149228E-03  0.102E-01    0.10       1.0  T
   8    -47.3129769 -0.264898E-03  0.479E-02    0.10       1.0  T
   9    -47.3130345 -0.575864E-04  0.167E-02    0.09       1.3  T
  10    -47.3130412 -0.663756E-05  0.576E-03    0.09       3.8  T
  11    -47.3130416 -0.466834E-06  0.401E-03    0.09       5.4  T
  12    -47.3130421 -0.450833E-06  0.147E-03    0.09      14.8  T
  13    -47.3130421 -0.504450E-07  0.593E-04    0.09      36.8  T
  14    -47.3130421 -0.849955E-08  0.241E-04    0.09      90.7  T
     SCC iter.                  ...        0 min,  0.020 sec
     gradient                   ...        0 min,  0.014 sec
[...]
   displ. norm   :     0.0682948 α      lambda       -0.5412185E-05
   maximum displ.:     0.0392291 α      in ANC's #2, #1, #12, ...

   *** GEOMETRY OPTIMIZATION CONVERGED AFTER 77 ITERATIONS ***

------------------------------------------------------------------------
 total energy gain   :        -0.5760510 Eh     -361.4775 kcal/mol
 total RMSD          :         3.0737040 a0        1.6265 Å
 total power (kW/mol):       -19.6418401 (step) -456.2712 (real)
------------------------------------------------------------------------

 ANCopt (total)                0 d,  0 h,  0 min,  3.315 sec
 optimizer setup                ...        0 min,  0.000 sec (  0.008%)
 model hessian                  ...        0 min,  0.008 sec (  0.228%)
 ANC generation                 ...        0 min,  0.003 sec (  0.078%)
 coordinate transformation      ...        0 min,  0.001 sec (  0.016%)
 single point calculation       ...        0 min,  3.258 sec ( 98.299%)
 optimization log               ...        0 min,  0.008 sec (  0.232%)
 hessian update                 ...        0 min,  0.001 sec (  0.025%)
 rational function              ...        0 min,  0.023 sec (  0.706%)

================
 final structure:
================
$coord
    5.15543762264108    7.78195735214984    1.08447005491189      c
    2.29826989328367    3.88133763330915    1.13594482500825      c
    3.69136840305825    5.90028603255212    1.11386955236209      c
    0.73871799259973    2.25225007120112    1.20172332891715      n
    0.21688917687117   -0.26297933595986    1.13330017907786      c
    2.09286167280593   -1.95605894947859    0.88379565756558      c
    4.86057831154319   -1.97428073378167    0.64715925905667      c
    2.92581879236496   -5.03313802073860    0.67123691589633      s
    5.98163453184825   -1.28323722173120   -1.78119250731609      c
    8.24914456009521   -0.24456765890110   -1.87655582804227      c
    9.29848585173515    0.01687130833950    0.36604666550806      c
    8.63767719866422   -0.46066886294284    2.71826646515586      c
    6.37827212636956   -1.50732245613932    2.90672217691514      c
   -2.34658145112788   -0.96766366804030    1.32218408009168      c
   -4.53463182398173   -1.55433877436153    1.57079262457567      c
   -6.99406348745587   -2.18032829960195    1.68635015506616      n
   -8.65398225357936   -1.34347485946819    0.06540428894209      c
   -9.49638179373343   -0.12479955056681   -1.78944659669323      c
  -10.81525863440047    0.89247995524482   -3.55709484044691      c
  -12.20123506395984    2.23600053918585   -5.78716245553679      s
   -7.54716494647839   -3.36217717741831    3.09476042878677      h
$periodic 0
$end

 Bond Distances (Angstroems)
 ---------------------------
C1-C3=1.2617         C2-C3=1.2981         C2-N4=1.1939         C3-C1=1.2617         C3-C2=1.2981         N4-C2=1.1939         
N4-C5=1.3598         C5-N4=1.3598         C5-C6=1.3437         C5-C14=1.4104        C6-C5=1.3437         C6-C7=1.4700         
C6-S8=1.6907         C7-C6=1.4700         C7-S8=1.9153         C7-C9=1.4618         C7-C13=1.4614        S8-C6=1.6907         
S8-C7=1.9153         C9-C7=1.4618         C9-C10=1.3208        C10-C9=1.3208        C10-C11=1.3175       C11-C10=1.3175       
C11-C12=1.3174       C12-C11=1.3174       C12-C13=1.3215       C13-C7=1.4614        C13-C12=1.3215       C14-C5=1.4104        
C14-C15=1.2060       C15-C14=1.2060       C15-N16=1.3444       N16-C15=1.3444       N16-C17=1.3052       N16-H21=1.0160       
C17-N16=1.3052       C17-C18=1.2562       C18-C17=1.2562       C18-C19=1.2852       C19-C18=1.2852       C19-S20=1.5608       
S20-C19=1.5608       H21-N16=1.0160       
 C  C  Rav=1.3380 sigma=0.0797  Rmin=1.2060  Rmax=1.4700    14
 N  H  Rav=1.0160 sigma=0.0000  Rmin=1.0160  Rmax=1.0160     1
 N  C  Rav=1.3008 sigma=0.0648  Rmin=1.1939  Rmax=1.3598     4
 S  C  Rav=1.7223 sigma=0.1465  Rmin=1.5608  Rmax=1.9153     3

 selected bond angles (degree)
 --------------------
N4-C2-C3=170.78                C2-C3-C1=176.72                C5-N4-C2=147.82                C6-C5-N4=120.35                
C14-C5-N4=116.89               C14-C5-C6=122.77               C7-C6-C5=138.49                S8-C6-C5=147.28                
S8-C6-C7= 74.23                S8-C7-C6= 58.16                C9-C7-C6=118.53                C9-C7-S8=115.73                
C13-C7-C6=118.47               C13-C7-S8=115.54               C13-C7-C9=116.99               C7-S8-C6= 47.61                
C10-C9-C7=120.42               C11-C10-C9=113.09              

 selected dihedral angles (degree)
 ---------------------------------
C1-C3-C2-N4=176.08            C5-N4-C2-C3=181.57            C6-C5-N4-C2=359.93            C14-C5-N4-C2=180.24           
C7-C6-C5-N4=  0.53            C7-C6-C5-C14=180.20           S8-C6-C5-N4=179.82            S8-C6-C5-C14=359.49           
S8-C7-C6-C5=179.60            C9-C7-C6-C5=283.73            C9-C7-C6-S8=104.13            C13-C7-C6-C5= 75.68           
C13-C7-C6-S8=256.08           C7-S8-C6-C5=180.49            C6-S8-C7-C9=251.05            C6-S8-C7-C13=108.98           
C10-C9-C7-C6=151.19           C10-C9-C7-S8=217.32           C10-C9-C7-C13=358.84          C11-C10-C9-C7=  1.11          
           -------------------------------------------------
          |                Final Singlepoint                |
           -------------------------------------------------

          ...................................................
          :                      SETUP                      :
          :.................................................:
          :  # basis functions                  93          :
          :  # atomic orbitals                  91          :
          :  # shells                           43          :
          :  # electrons                        87          :
          :  max. iterations                   250          :
          :  Hamiltonian                  GFN2-xTB          :
          :  restarted?                      false          :
          :  GBSA solvation                  false          :
          :  PC potential                    false          :
          :  electronic temp.          300.0000000     K    :
          :  accuracy                    1.0000000          :
          :  -> integral cutoff          0.2500000E+02      :
          :  -> integral neglect         0.1000000E-07      :
          :  -> SCF convergence          0.1000000E-05 Eh   :
          :  -> wf. convergence          0.1000000E-03 e    :
          :  Broyden damping             0.4000000          :
          ...................................................

 iter      E             dE          RMSdq      gap      omega  full diag
   1    -47.3279522 -0.473280E+02  0.202E-04    0.07       0.0  T
   2    -47.3279522  0.103976E-07  0.592E-04    0.07      36.9  T
   3    -47.3279522  0.293344E-07  0.106E-03    0.07      20.6  T
   4    -47.3279522 -0.409731E-07  0.467E-05    0.07     467.2  T

   *** convergence criteria satisfied after 4 iterations ***

         #    Occupation            Energy/Eh            Energy/eV
      -------------------------------------------------------------
         1        2.0000           -0.7587300             -20.6461
       ...           ...                  ...                  ...
        38        2.0000           -0.4170417             -11.3483
        39        2.0000           -0.4159060             -11.3174
        40        2.0000           -0.3917847             -10.6610
        41        2.0000           -0.3904662             -10.6251
        42        2.0000           -0.3766282             -10.2486
        43        2.0000           -0.3727558             -10.1432
        44        0.7963           -0.3451828              -9.3929 (HOMO)
        45        0.2037           -0.3425921              -9.3224 (LUMO)
        46                         -0.3240400              -8.8176
        47                         -0.3079777              -8.3805
        48                         -0.2976949              -8.1007
        49                         -0.2845625              -7.7433
       ...                                ...                  ...
        91                          1.4106929              38.3869
      -------------------------------------------------------------
                  HL-Gap            0.0025908 Eh            0.0705 eV
             Fermi-level           -0.3514394 Eh           -9.5632 eV

 SCC (total)                   0 d,  0 h,  0 min,  0.025 sec
 SCC setup                      ...        0 min,  0.000 sec (  0.649%)
 Dispersion                     ...        0 min,  0.000 sec (  0.454%)
 classical contributions        ...        0 min,  0.000 sec (  0.136%)
 integral evaluation            ...        0 min,  0.005 sec ( 19.553%)
 iterations                     ...        0 min,  0.006 sec ( 25.955%)
 molecular gradient             ...        0 min,  0.013 sec ( 52.409%)
 printout                       ...        0 min,  0.000 sec (  0.798%)

         :::::::::::::::::::::::::::::::::::::::::::::::::::::
         ::                     SUMMARY                     ::
         :::::::::::::::::::::::::::::::::::::::::::::::::::::
         :: total energy             -46.357886120622 Eh    ::
         :: gradient norm              0.000651794846 Eh/a0 ::
         :: HOMO-LUMO gap              0.070498511293 eV    ::
         ::.................................................::
         :: SCC energy               -47.327952192658 Eh    ::
         :: -> isotropic ES            0.006974332831 Eh    ::
         :: -> anisotropic ES         -0.001286474297 Eh    ::
         :: -> anisotropic XC          0.040965309485 Eh    ::
         :: -> dispersion             -0.027398737494 Eh    ::
         :: repulsion energy           0.970093752734 Eh    ::
         :: add. restraining           0.000000000000 Eh    ::
         :: total charge              -0.000000000844 e     ::
         :::::::::::::::::::::::::::::::::::::::::::::::::::::

           -------------------------------------------------
          |                Property Printout                |
           -------------------------------------------------

    * Orbital Energies and Occupations

         #    Occupation            Energy/Eh            Energy/eV
      -------------------------------------------------------------
         1        2.0000           -0.7587300             -20.6461
       ...           ...                  ...                  ...
        32        2.0000           -0.4606577             -12.5351
        33        2.0000           -0.4572580             -12.4426
        34        2.0000           -0.4436772             -12.0731
        35        2.0000           -0.4372789             -11.8990
        36        2.0000           -0.4291851             -11.6787
        37        2.0000           -0.4183103             -11.3828
        38        2.0000           -0.4170417             -11.3483
        39        2.0000           -0.4159060             -11.3174
        40        2.0000           -0.3917847             -10.6610
        41        2.0000           -0.3904662             -10.6251
        42        2.0000           -0.3766282             -10.2486
        43        2.0000           -0.3727558             -10.1432
        44        0.7963           -0.3451828              -9.3929 (HOMO)
        45        0.2037           -0.3425921              -9.3224 (LUMO)
        46                         -0.3240400              -8.8176
        47                         -0.3079777              -8.3805
        48                         -0.2976949              -8.1007
        49                         -0.2845625              -7.7433
        50                         -0.2827888              -7.6951
        51                         -0.2542285              -6.9179
        52                         -0.2390012              -6.5036
        53                         -0.2101858              -5.7194
        54                         -0.2043634              -5.5610
        55                         -0.1829249              -4.9776
       ...                                ...                  ...
        91                          1.4106929              38.3869
      -------------------------------------------------------------
                  HL-Gap            0.0025908 Eh            0.0705 eV
             Fermi-level           -0.3514394 Eh           -9.5632 eV

     #   Z          covCN         q      C6AA      α(0)
     1   6 c        0.982    -0.171    41.587    10.832
     2   6 c        1.901     0.124    28.053     8.554
     3   6 c        1.963    -0.026    31.757     9.101
     4   7 n        1.846    -0.069    23.326     7.158
     5   6 c        2.886     0.094    25.914     8.346
     6   6 c        2.967     0.047    26.940     8.514
     7   6 c        3.918     0.095    18.955     6.188
     8  16 s        1.957    -0.014   141.631    20.030
     9   6 c        2.118    -0.101    33.588     9.365
    10   6 c        1.984    -0.055    32.548     9.213
    11   6 c        2.243     0.051    28.899     8.709
    12   6 c        1.984    -0.056    32.566     9.216
    13   6 c        2.118    -0.102    33.618     9.370
    14   6 c        1.985    -0.036    32.027     9.139
    15   6 c        1.934     0.012    30.776     8.959
    16   7 n        2.682     0.009    21.114     6.825
    17   6 c        1.936     0.028    30.363     8.899
    18   6 c        1.977    -0.038    32.082     9.147
    19   6 c        1.960     0.060    29.562     8.780
    20  16 s        0.991    -0.045   141.008    20.084
    21   1 h        0.860     0.194     1.137     1.670

 Mol. C6AA /au·bohr⁶  :      14973.006052
 Mol. C8AA /au·bohr⁸  :     473541.202926
 Mol. α(0) /au        :        198.098610


Wiberg/Mayer (AO) data.
largest (>0.10) Wiberg bond orders for each atom

 ---------------------------------------------------------------------------
     #   Z sym  total        # sym  WBO       # sym  WBO       # sym  WBO
 ---------------------------------------------------------------------------
     1   6 c    2.671 --     3 c    2.223     4 n    0.264     2 c    0.171
     2   6 c    3.924 --     4 n    2.028     3 c    1.582     1 c    0.171
     3   6 c    3.947 --     1 c    2.223     2 c    1.582     4 n    0.102
     4   7 n    3.559 --     2 c    2.028     5 c    1.089     1 c    0.264
                             3 c    0.102
     5   6 c    3.953 --     6 c    1.540    14 c    1.104     4 n    1.089
                             8 s    0.109
     6   6 c    3.857 --     5 c    1.540     8 s    1.136     7 c    0.924
     7   6 c    3.883 --    13 c    1.064     9 c    1.064     6 c    0.924
                             8 s    0.713
     8  16 s    2.219 --     6 c    1.136     7 c    0.713     5 c    0.109
     9   6 c    3.550 --    10 c    1.665     7 c    1.064    12 c    0.374
                            11 c    0.209    13 c    0.163
    10   6 c    3.810 --     9 c    1.665    11 c    1.638    13 c    0.373
    11   6 c    3.801 --    12 c    1.640    10 c    1.638    13 c    0.209
                             9 c    0.209
    12   6 c    3.808 --    13 c    1.661    11 c    1.640     9 c    0.374
    13   6 c    3.547 --    12 c    1.661     7 c    1.064    10 c    0.373
                            11 c    0.209     9 c    0.163
    14   6 c    3.935 --    15 c    2.620     5 c    1.104
    15   6 c    3.929 --    14 c    2.620    16 n    1.121
    16   7 n    3.534 --    17 c    1.319    15 c    1.121    21 h    0.910
    17   6 c    3.617 --    18 c    2.021    16 n    1.319    20 s    0.176
    18   6 c    3.922 --    17 c    2.021    19 c    1.700
    19   6 c    3.685 --    20 s    1.879    18 c    1.700
    20  16 s    2.140 --    19 c    1.879    17 c    0.176
    21   1 h    0.950 --    16 n    0.910
 ---------------------------------------------------------------------------

Topologies differ in total number of bonds
Writing topology from bond orders to xtbtopo.mol

molecular dipole:
                 x           y           z       tot (Debye)
 q only:       -3.395      -1.804       0.601
   full:       -3.399      -2.213       0.712      10.467
molecular quadrupole (traceless):
                xx          xy          yy          xz          yz          zz
 q only:        1.554       1.115      -6.075     -11.496      -4.244       4.520
  q+dip:        7.704      -1.022     -13.207     -13.300      -7.226       5.503
   full:        5.176      -4.509     -11.074     -14.473      -5.182       5.899

           -------------------------------------------------
          |                Geometry Summary                 |
           -------------------------------------------------

      molecular mass/u    :      285.3226964
   center of mass at/Å    :       -0.2601110      -0.0194289      -0.0910297
  moments of inertia/u·Å² :        0.1015240E+04   0.4392980E+04   0.4887905E+04
rotational constants/cm⁻¹ :        0.1660458E-01   0.3837403E-02   0.3448846E-02

 * 18 selected distances

     #   Z          #   Z                                           value/Å
     1   6 c        3   6 c                                       1.2617355
     2   6 c        3   6 c                                       1.2980885
     2   6 c        4   7 n                                       1.1939317
     4   7 n        5   6 c                                       1.3598276
     5   6 c        6   6 c                                       1.3437398
     6   6 c        7   6 c                                       1.4699878
     6   6 c        8  16 s                                       1.6906708 (max)
     9   6 c       10   6 c                                       1.3207750
    10   6 c       11   6 c                                       1.3175062
    11   6 c       12   6 c                                       1.3173911
    12   6 c       13   6 c                                       1.3214511
    14   6 c       15   6 c                                       1.2059622
    15   6 c       16   7 n                                       1.3443624
    16   7 n       17   6 c                                       1.3051618
    17   6 c       18   6 c                                       1.2562002
    18   6 c       19   6 c                                       1.2852444
    19   6 c       20  16 s                                       1.5607751
    16   7 n       21   1 h                                       1.0160076 (min)

 * 4 distinct bonds (by element types)

   Z      Z             #   av. dist./Å        max./Å        min./Å
   6 C    6 C          11     1.3089165     1.4699878     1.2059622
   1 H    7 N           1     1.0160076     1.0160076     1.0160076
   6 C    7 N           4     1.3008209     1.3598276     1.1939317
   6 C   16 S           2     1.6257229     1.6906708     1.5607751


optimized geometry written to: xtbopt.coord


           -------------------------------------------------
          | TOTAL ENERGY              -46.357886120622 Eh   |
          | GRADIENT NORM               0.000651794846 Eh/α |
          | HOMO-LUMO GAP               0.070498511293 eV   |
           -------------------------------------------------

------------------------------------------------------------------------
 * finished run on 2022/05/24 at 17:04:15.233     
------------------------------------------------------------------------
 total:
 * wall-time:     0 d,  0 h,  0 min,  3.557 sec
 *  cpu-time:     0 d,  0 h,  0 min,  3.462 sec
 * ratio c/w:     0.973 speedup
 SCF:
 * wall-time:     0 d,  0 h,  0 min,  0.101 sec
 *  cpu-time:     0 d,  0 h,  0 min,  0.089 sec
 * ratio c/w:     0.882 speedup
 ANC optimizer:
 * wall-time:     0 d,  0 h,  0 min,  3.340 sec
 *  cpu-time:     0 d,  0 h,  0 min,  3.328 sec
 * ratio c/w:     0.996 speedup

